
                                 *****************
                                 * O   R   C   A *
                                 *****************

                                            #,                                       
                                            ###                                      
                                            ####                                     
                                            #####                                    
                                            ######                                   
                                           ########,                                 
                                     ,,################,,,,,                         
                               ,,#################################,,                 
                          ,,##########################################,,             
                       ,#########################################, ''#####,          
                    ,#############################################,,   '####,        
                  ,##################################################,,,,####,       
                ,###########''''           ''''###############################       
              ,#####''   ,,,,##########,,,,          '''####'''          '####       
            ,##' ,,,,###########################,,,                        '##       
           ' ,,###''''                  '''############,,,                           
         ,,##''                                '''############,,,,        ,,,,,,###''
      ,#''                                            '''#######################'''  
     '                                                          ''''####''''         
             ,#######,   #######,   ,#######,      ##                                
            ,#'     '#,  ##    ##  ,#'     '#,    #''#        ,####,   ,####,        
            ##       ##  ##   ,#'  ##            #'  '#       #'       #'  '#        
            ##       ##  #######   ##           ,######,      #####,   #    #        
            '#,     ,#'  ##    ##  '#,     ,#' ,#      #,     #,   #   #,  ,#        
             '#######'   ##     ##  '#######'  #'      '#     '####' # '####'        



                #########################################################
                #                        -***-                          #
                #          Department of theory and spectroscopy        #
                #                                                       #
                #                      Frank Neese                      #
                #                                                       #
                #     Directorship, Architecture, Infrastructure        #
                #                    SHARK, DRIVERS                     #
                #        Core code/Algorithms in most modules           #
                #                                                       #
                #        Max Planck Institute fuer Kohlenforschung      #
                #                Kaiser Wilhelm Platz 1                 #
                #                 D-45470 Muelheim/Ruhr                 #
                #                      Germany                          #
                #                                                       #
                #                  All rights reserved                  #
                #                        -***-                          #
                #########################################################


                         Program Version 6.0.1  -  RELEASE   -


 With contributions from (in alphabetic order):
[Max-Planck-Institut fuer Kohlenforschung]                               
  Daniel Aravena         : Magnetic Suceptibility                        
  Michael Atanasov       : Ab Initio Ligand Field Theory (pilot matlab implementation)
  Alexander A. Auer      : GIAO ZORA, VPT2 properties, NMR spectrum      
  Ute Becker             : All parallelization in ORCA, NUMFREQ, NUMCALC 
  Giovanni Bistoni       : ED, misc. LED, open-shell LED, HFLD           
  Martin Brehm           : Molecular dynamics                            
  Dmytro Bykov           : pre 5.0 version of the SCF Hessian            
  Marcos Casanova-Páez   : Triplet and SCS-CIS(D). UHF-(DLPNO)-IP/EA/STEOM-CCSD. UHF-CVS-IP/STEOM-CCSD   
  Vijay G. Chilkuri      : MRCI spin determinant printing, contributions to CSF-ICE 
  Pauline Colinet        : FMM embedding                                 
  Dipayan Datta          : RHF DLPNO-CCSD density                        
  Achintya Kumar Dutta   : EOM-CC, STEOM-CC                              
  Nicolas Foglia         : Exact transition moments, OPA infrastructure, MCD improvements    
  Dmitry Ganyushin       : Spin-Orbit,Spin-Spin,Magnetic field MRCI      
  Miquel Garcia-Rates    : C-PCM and meta-GGA Hessian, CCSD/C-PCM, Gaussian charge scheme 
  Tiago L. C. Gouveia    : GS-ROHF, GS-ROCIS                             
  Yang Guo               : DLPNO-NEVPT2, F12-NEVPT2, CIM, IAO-localization        
  Andreas Hansen         : Spin unrestricted coupled pair/coupled cluster methods 
  Ingolf Harden          : AUTO-CI MPn and infrastructure                
  Benjamin Helmich-Paris : MC-RPA, TRAH-(SCF,CASSCF), AVAS, COSX integrals, SCF dyn. polar. 
  Lee Huntington         : MR-EOM, pCC                                   
  Robert Izsak           : Overlap fitted RIJCOSX, COSX-SCS-MP3, EOM     
  Riya Kayal             : Wick's Theorem for AUTO-CI, AUTO-CI UHF-CCSDT 
  Emily Kempfer          : AUTO-CI, RHF CISDT and CCSDT                  
  Christian Kollmar      : KDIIS, OOCD, Brueckner-CCSD(T), CCSD density, CASPT2, CASPT2-K, improved NEVPT2 
  Axel Koslowski         : Symmetry handling                             
  Simone Kossmann        : meta-GGA functionals, TD-DFT gradient, OOMP2, (MP2 Hessian; deprecated post 5.0) 
  Lucas Lang             : DCDCAS                                        
  Marvin Lechner         : AUTO-CI (C++ implementation), FIC-MRCC        
  Spencer Leger          : CASSCF response                               
  Dagmar Lenk            : GEPOL surface, SMD, ORCA-2-JSON               
  Dimitrios Liakos       : Extrapolation schemes; Compound Job, initial MDCI parallelization 
  Dimitrios Manganas     : Further ROCIS development; embedding schemes. LFT, Crystal Embedding 
  Dimitrios Pantazis     : SARC Basis sets                               
  Anastasios Papadopoulos: AUTO-CI, single reference methods and gradients 
  Taras Petrenko         : pre 6.0 DFT Hessian and TD-DFT gradient, (ASA, deprecated), ECA, 1-Electron XAS/XES, NRVS 
  Peter Pinski           : DLPNO-MP2, DLPNO-MP2 Gradient                 
  Christoph Reimann      : Effective Core Potentials                     
  Marius Retegan         : Local ZFS, SOC                                
  Christoph Riplinger    : Optimizer, TS searches, QM/MM, DLPNO-CCSD(T), (RO)-DLPNO pert. Triples 
  Michael Roemelt        : Original ROCIS implementation                 
  Masaaki Saitow         : Open-shell DLPNO-CCSD energy and density      
  Barbara Sandhoefer     : DKH picture change effects                    
  Kantharuban Sivalingam : CASSCF convergence/infrastructure, NEVPT2 and variants, FIC-MRCI 
  Bernardo de Souza      : ESD, SOC TD-DFT                               
  Georgi L. Stoychev     : AutoAux, RI-MP2 NMR, DLPNO-MP2 response, X2C  
  Van Anh Tran           : RI-MP2 g-tensors                              
  Willem Van den Heuvel  : Paramagnetic NMR                              
  Zikuan Wang            : NOTCH, Electric field optimization            
  Frank Wennmohs         : Technical directorship and infrastructure     
  Hang Xu                : AUTO-CI-Response properties                   
                                                                         
[FACCTs GmbH]                                                            
  Markus Bursch, Miquel Garcia-Rates, Christoph Riplinger, Bernardo de Souza, Georgi L. Stoychev 
                                                                 
  APM, Basis sets (HGBS, AHGBS, def-TZVP (Ac-Lr), def2-XVPD (La-Lu)), CI-OPT, improved COSX, DLPNO-Multilevel,           
  DOCKER, DRACO, updates on ESD, GOAT, IRC, LR-CPCM, MBIS, meta-GGA TD-DFT gradient, ML-optimized integration grids, 
  MM, NACMEs, nearIR, NEB, NEB-TS, NL-DFT gradient (VV10), 2- and 3-layer-ONIOM, interface openCOSMO-RS, QMMM,   
  Crystal-QMMM, SF, symmetry and pop. for TD-DFT, r2SCAN hybrids, SOLVATOR                                   
                                                                         
[Other institutions]                                                     
  V. Asgeirsson          : NEB                                           
  Christoph Bannwarth    : sTDA-DFT, sTD-DFT, PBEh-3c, B97-3c, D3        
  Sebastian Ehlert       : rSCAN, r2SCAN, r2SCAN-3c, D4, dhf basis sets  
  Marvin Friede          : D4 for Fr, Ra, Ac-Lr                          
  Lars Goerigk           : TD-DFT with DH, B97 family of functionals     
  Stefan Grimme          : VdW corrections, initial TS optimization, DFT functionals, gCP, sTDA/sTD-DF 
  Waldemar Hujo          : DFT-NL                                        
  H. Jonsson             : NEB                                           
  Holger Kruse           : gCP                                           
  Marcel Mueller         : wB97X-3c, vDZP basis set                      
  Hagen Neugebauer       : wr2SCAN                                       
  Tobias Risthaus        : range-separated hybrid DFT                    
  Lukas Wittmann         : regularized MP2, r2SCAN double-hybrids, wr2SCAN        
                                                                         
We gratefully acknowledge several colleagues who have allowed us to      
interface, adapt or use parts of their codes:                            
  Ed Valeev, F. Pavosevic, A. Kumar             : LibInt (2-el integral package), F12 methods 
  Garnet Chan, S. Sharma, J. Yang, R. Olivares  : DMRG                   
  Ulf Ekstrom                                   : XCFun DFT Library      
  Mihaly Kallay                                 : mrcc  (arbitrary order and MRCC methods)
  Frank Weinhold                                : gennbo (NPA and NBO analysis)           
  Simon Mueller                                 : openCOSMO-RS                            
  Christopher J. Cramer and Donald G. Truhlar   : smd solvation model                     
  S Lehtola, MJT Oliveira, MAL Marques          : LibXC Library                           
  Liviu Ungur et al                             : ANISO software                          


 Your calculation uses the libint2 library for the computation of 2-el integrals
 For citations please refer to: http://libint.valeyev.net

 Your ORCA version has been built with support for libXC version: 6.2.2
 For citations please refer to: https://libxc.gitlab.io

 This ORCA versions uses:
   CBLAS   interface :  Fast vector & matrix operations
   LAPACKE interface :  Fast linear algebra routines
   SCALAPACK package :  Parallel linear algebra routines
   Shared memory     :  Shared parallel matrices


Your calculation utilizes the atom-pairwise dispersion correction
with the Becke-Johnson damping scheme (D3BJ)


Warning: RI is on but no J-basis has been assigned. Assigning Def2/J (nothing to worry about!)
================================================================================

----- Orbital basis set information -----
Your calculation utilizes the basis: def2-SVP
   F. Weigend and R. Ahlrichs, Phys. Chem. Chem. Phys. 7, 3297 (2005).

----- AuxJ basis set information -----
Your calculation utilizes the auxiliary basis: def2/J
   F. Weigend, Phys. Chem. Chem. Phys. 8, 1057 (2006).

================================================================================
                                        WARNINGS
                       Please study these warnings very carefully!
================================================================================


WARNING: Geometry Optimization
  ===> : Switching off AutoStart
         For restart on a previous wavefunction, please use MOREAD

================================================================================
                                       INPUT FILE
================================================================================
NAME = DMC.inp
|  1> # avogadro generated ORCA input file 
|  2> # Basic Mode
|  3> # 
|  4> ! B3LYP D3BJ def2-SVP TightSCF Opt
|  5> 
|  6> * xyz 0 1
|  7>    C       -4.14560        1.25681        0.00014
|  8>    O       -2.84000        0.68173        0.00683
|  9>    H       -4.21189        2.11726       -0.67347
| 10>    H       -4.42809        1.54192        1.01769
| 11>    H       -4.84580        0.49535       -0.35513
| 12>    C       -1.82310        1.57856        0.01416
| 13>    O       -0.65610        0.88859       -0.00347
| 14>    C        0.51935        1.69702       -0.02197
| 15>    H        0.76473        2.01259        0.99618
| 16>    H        0.41178        2.56620       -0.67880
| 17>    H        1.34127        1.08501       -0.40437
| 18>    O       -1.93842        2.79472        0.03435
| 19> *
| 20> 
| 21> 
| 22>                          ****END OF INPUT****
================================================================================

                       *****************************
                       * Geometry Optimization Run *
                       *****************************

Geometry optimization settings:
Update method            Update   .... BFGS
Choice of coordinates    CoordSys .... (2022) Redundant Internals
Initial Hessian          InHess   .... Almloef's Model
Max. no of cycles        MaxIter  .... 50

Convergence Tolerances:
Energy Change            TolE     ....  5.0000e-06 Eh
Max. Gradient            TolMAXG  ....  3.0000e-04 Eh/bohr
RMS Gradient             TolRMSG  ....  1.0000e-04 Eh/bohr
Max. Displacement        TolMAXD  ....  4.0000e-03 bohr
RMS Displacement         TolRMSD  ....  2.0000e-03 bohr
Strict Convergence                .... False

------------------------------------------------------------------------------
                        ORCA OPTIMIZATION COORDINATE SETUP
------------------------------------------------------------------------------

The optimization will be done in redundant internal coordinates (2022)
Making redundant internal coordinates   ...  (2022 redundants) done
Evaluating the initial hessian          ...  (Almloef) done
Evaluating the coordinates              ...  done
Calculating the B-matrix                .... done
Calculating the G-matrix                .... done
Diagonalizing the G-matrix              .... done
Small eigenvalue found = 2.764e-02
The first mode is                       ....    8
The number of degrees of freedom        ....   30

    -----------------------------------------------------------------
                    Redundant Internal Coordinates


    -----------------------------------------------------------------
         Definition                    Initial Value    Approx d2E/dq
    -----------------------------------------------------------------
      1. B(O   1,C   0)                  1.4267         0.489091   
      2. B(H   2,C   0)                  1.0948         0.353846   
      3. B(H   3,C   0)                  1.0938         0.355050   
      4. B(H   4,C   0)                  1.0938         0.355156   
      5. B(C   5,O   1)                  1.3559         0.634297   
      6. B(O   6,C   5)                  1.3558         0.634456   
      7. B(C   7,O   6)                  1.4267         0.488946   
      8. B(H   8,C   7)                  1.0938         0.355092   
      9. B(H   9,C   7)                  1.0947         0.353875   
     10. B(H  10,C   7)                  1.0938         0.355144   
     11. B(O  11,C   5)                  1.2218         1.038141   
     12. A(H   2,C   0,H   4)          107.9721         0.289413   
     13. A(H   3,C   0,H   4)          108.5596         0.289567   
     14. A(O   1,C   0,H   3)          109.6969         0.336266   
     15. A(O   1,C   0,H   2)          112.0316         0.336076   
     16. A(H   2,C   0,H   3)          110.6025         0.289399   
     17. A(O   1,C   0,H   4)          107.8634         0.336283   
     18. A(C   0,O   1,C   5)          114.8189         0.412335   
     19. A(O   1,C   5,O  11)          125.9932         0.472385   
     20. A(O   1,C   5,O   6)          107.9910         0.431951   
     21. A(O   6,C   5,O  11)          126.0158         0.472407   
     22. A(C   5,O   6,C   7)          114.8944         0.412332   
     23. A(H   8,C   7,H  10)          108.5592         0.289571   
     24. A(O   6,C   7,H  10)          107.8535         0.336264   
     25. A(H   9,C   7,H  10)          107.9583         0.289415   
     26. A(H   8,C   7,H   9)          110.5769         0.289408   
     27. A(O   6,C   7,H   9)          112.1296         0.336064   
     28. A(O   6,C   7,H   8)          109.6472         0.336256   
     29. D(C   5,O   1,C   0,H   4)    160.3548         0.018887   
     30. D(C   5,O   1,C   0,H   2)     41.6603         0.018887   
     31. D(C   5,O   1,C   0,H   3)    -81.5738         0.018887   
     32. D(O  11,C   5,O   1,C   0)      1.0981         0.029619   
     33. D(O   6,C   5,O   1,C   0)   -178.9633         0.029619   
     34. D(C   7,O   6,C   5,O  11)     -1.1024         0.029635   
     35. D(C   7,O   6,C   5,O   1)    178.9590         0.029635   
     36. D(H  10,C   7,O   6,C   5)   -159.1824         0.018876   
     37. D(H   9,C   7,O   6,C   5)    -40.4534         0.018876   
     38. D(H   8,C   7,O   6,C   5)     82.7800         0.018876   
    -----------------------------------------------------------------

Number of atoms                         .... 12
Number of degrees of freedom            .... 38


         *************************************************************
         *                GEOMETRY OPTIMIZATION CYCLE   1            *
         *************************************************************
---------------------------------
CARTESIAN COORDINATES (ANGSTROEM)
---------------------------------
  C     -4.145600    1.256810    0.000140
  O     -2.840000    0.681730    0.006830
  H     -4.211890    2.117260   -0.673470
  H     -4.428090    1.541920    1.017690
  H     -4.845800    0.495350   -0.355130
  C     -1.823100    1.578560    0.014160
  O     -0.656100    0.888590   -0.003470
  C      0.519350    1.697020   -0.021970
  H      0.764730    2.012590    0.996180
  H      0.411780    2.566200   -0.678800
  H      1.341270    1.085010   -0.404370
  O     -1.938420    2.794720    0.034350

----------------------------
CARTESIAN COORDINATES (A.U.)
----------------------------
  NO LB      ZA    FRAG     MASS         X           Y           Z
   0 C     6.0000    0    12.011   -7.834049    2.375027    0.000265
   1 O     8.0000    0    15.999   -5.366822    1.288283    0.012907
   2 H     1.0000    0     1.008   -7.959319    4.001042   -1.272674
   3 H     1.0000    0     1.008   -8.367877    2.913807    1.923155
   4 H     1.0000    0     1.008   -9.157235    0.936076   -0.671098
   5 C     6.0000    0    12.011   -3.445160    2.983046    0.026759
   6 O     8.0000    0    15.999   -1.239849    1.679192   -0.006557
   7 C     6.0000    0    12.011    0.981429    3.206903   -0.041517
   8 H     1.0000    0     1.008    1.445130    3.803244    1.882507
   9 H     1.0000    0     1.008    0.778151    4.849415   -1.282746
  10 H     1.0000    0     1.008    2.534633    2.050372   -0.764149
  11 O     8.0000    0    15.999   -3.663083    5.281255    0.064912

--------------------------------
INTERNAL COORDINATES (ANGSTROEM)
--------------------------------
 C      0   0   0     0.000000000000     0.00000000     0.00000000
 O      1   0   0     1.426658025772     0.00000000     0.00000000
 H      1   2   0     1.094768924796   112.03161145     0.00000000
 H      1   2   3     1.093844739760   109.69692534   236.76583505
 H      1   2   3     1.093763294548   107.86335289   118.69448623
 C      2   1   3     1.355892100353   114.81889157    41.66033547
 O      6   2   1     1.355823888932   107.99100814   181.03673645
 C      7   6   2     1.426738945077   114.89442729   178.95899415
 H      8   7   6     1.093812228767   109.64723686    82.78002990
 H      8   7   6     1.094746923357   112.12961426   319.54656614
 H      8   7   6     1.093772593595   107.85349105   200.81763214
 O      6   2   1     1.221782093542   125.99316238     1.09807157

---------------------------
INTERNAL COORDINATES (A.U.)
---------------------------
 C      0   0   0     0.000000000000     0.00000000     0.00000000
 O      1   0   0     2.695992955470     0.00000000     0.00000000
 H      1   2   0     2.068813447793   112.03161145     0.00000000
 H      1   2   3     2.067066991176   109.69692534   236.76583505
 H      1   2   3     2.066913082031   107.86335289   118.69448623
 C      2   1   3     2.562264736815   114.81889157    41.66033547
 O      6   2   1     2.562135835910   107.99100814   181.03673645
 C      7   6   2     2.696145870796   114.89442729   178.95899415
 H      8   7   6     2.067005554303   109.64723686    82.78002990
 H      8   7   6     2.068771871098   112.12961426   319.54656614
 H      8   7   6     2.066930654684   107.85349105   200.81763214
 O      6   2   1     2.308833552123   125.99316238     1.09807157

---------------------
BASIS SET INFORMATION
---------------------
There are 3 groups of distinct atoms

 Group   1 Type C   : 7s4p1d contracted to 3s2p1d pattern {511/31/1}
 Group   2 Type O   : 7s4p1d contracted to 3s2p1d pattern {511/31/1}
 Group   3 Type H   : 4s1p contracted to 2s1p pattern {31/1}

Atom   0C    basis set group =>   1
Atom   1O    basis set group =>   2
Atom   2H    basis set group =>   3
Atom   3H    basis set group =>   3
Atom   4H    basis set group =>   3
Atom   5C    basis set group =>   1
Atom   6O    basis set group =>   2
Atom   7C    basis set group =>   1
Atom   8H    basis set group =>   3
Atom   9H    basis set group =>   3
Atom  10H    basis set group =>   3
Atom  11O    basis set group =>   2
---------------------------------
AUXILIARY/J BASIS SET INFORMATION
---------------------------------
There are 3 groups of distinct atoms

 Group   1 Type C   : 12s5p4d2f1g contracted to 6s4p3d1f1g pattern {711111/2111/211/2/1}
 Group   2 Type O   : 12s5p4d2f1g contracted to 6s4p3d1f1g pattern {711111/2111/211/2/1}
 Group   3 Type H   : 5s2p1d contracted to 3s1p1d pattern {311/2/1}

Atom   0C    basis set group =>   1
Atom   1O    basis set group =>   2
Atom   2H    basis set group =>   3
Atom   3H    basis set group =>   3
Atom   4H    basis set group =>   3
Atom   5C    basis set group =>   1
Atom   6O    basis set group =>   2
Atom   7C    basis set group =>   1
Atom   8H    basis set group =>   3
Atom   9H    basis set group =>   3
Atom  10H    basis set group =>   3
Atom  11O    basis set group =>   2
------------------------------------------------------------------------------
                             ORCA STARTUP CALCULATIONS
                           -- RI-GTO INTEGRALS CHOSEN --
------------------------------------------------------------------------------
------------------------------------------------------------------------------
                   ___                                                        
                  /   \      - P O W E R E D   B Y -                         
                 /     \                                                     
                 |  |  |   _    _      __       _____    __    __             
                 |  |  |  | |  | |    /  \     |  _  \  |  |  /  |          
                  \  \/   | |  | |   /    \    | | | |  |  | /  /          
                 / \  \   | |__| |  /  /\  \   | |_| |  |  |/  /          
                |  |  |   |  __  | /  /__\  \  |    /   |      \           
                |  |  |   | |  | | |   __   |  |    \   |  |\   \          
                \     /   | |  | | |  |  |  |  | |\  \  |  | \   \       
                 \___/    |_|  |_| |__|  |__|  |_| \__\ |__|  \__/        
                                                                              
                      - O R C A' S   B I G   F R I E N D -                    
                                      &                                       
                       - I N T E G R A L  F E E D E R -                       
                                                                              
 v1 FN, 2020, v2 2021, v3 2022-2024                                           
------------------------------------------------------------------------------


----------------------
SHARK INTEGRAL PACKAGE
----------------------

Number of atoms                             ...     12
Number of basis functions                   ...    114
Number of shells                            ...     54
Maximum angular momentum                    ...      2
Integral batch strategy                     ... SHARK/LIBINT Hybrid
RI-J (if used) integral strategy            ... SPLIT-RIJ (Revised 2003 algorithm where possible)
Printlevel                                  ...      1
Contraction scheme used                     ... SEGMENTED contraction
Prescreening option                         ... SCHWARTZ
   Thresh                                   ... 2.500e-11
   Tcut                                     ... 2.500e-12
   Tpresel                                  ... 2.500e-12 
Coulomb Range Separation                    ... NOT USED
Exchange Range Separation                   ... NOT USED
Multipole approximations                    ... NOT USED
Finite Nucleus Model                        ... NOT USED
CABS basis                                  ... NOT available
Auxiliary Coulomb fitting basis             ... AVAILABLE
   # of basis functions in Aux-J            ...    360
   # of shells in Aux-J                     ...    120
   Maximum angular momentum in Aux-J        ...      4
Auxiliary J/K fitting basis                 ... NOT available
Auxiliary Correlation fitting basis         ... NOT available
Auxiliary 'external' fitting basis          ... NOT available

Checking pre-screening integrals            ... done (  0.0 sec) Dimension = 54
Check shell pair data                       ... done (  0.0 sec)
Shell pair information
Shell pair cut-off parameter TPreSel        ...   2.5e-12
Total number of shell pairs                 ...      1485
Shell pairs after pre-screening             ...      1405
Total number of primitive shell pairs       ...      5349
Primitive shell pairs kept                  ...      3826
          la=0 lb=0:    440 shell pairs
          la=1 lb=0:    510 shell pairs
          la=1 lb=1:    160 shell pairs
          la=2 lb=0:    172 shell pairs
          la=2 lb=1:    102 shell pairs
          la=2 lb=2:     21 shell pairs

Calculating one electron integrals          ... done (  0.0 sec)
Calculating RI/J V-Matrix + Cholesky decomp.... done (  0.0 sec)
Calculating Nuclear repulsion               ... done (  0.0 sec) ENN=    250.148859150759 Eh

Diagonalization of the overlap matrix:
Smallest eigenvalue                        ... 9.150e-03
Time for diagonalization                   ...    0.001 sec
Threshold for overlap eigenvalues          ... 1.000e-07
Number of eigenvalues below threshold      ... 0
Time for construction of square roots      ...    0.000 sec
Total time needed                          ...    0.002 sec

-------------------
DFT GRID GENERATION
-------------------

General Integration Accuracy     IntAcc      ... 4.388
Radial Grid Type                 RadialGrid  ... OptM3 with GC (2021)
Angular Grid (max. ang.)         AngularGrid ... 4 (Lebedev-302)
Angular grid pruning method      GridPruning ... 4 (adaptive)
Weight generation scheme         WeightScheme... mBecke (2022)
Basis function cutoff            BFCut       ... 1.0000e-11
Integration weight cutoff        WCut        ... 1.0000e-14
Partially contracted basis set               ... off
Rotationally invariant grid construction     ... off
Angular grids for H and He will be reduced by one unit

Total number of grid points                  ...    55948
Total number of batches                      ...      882
Average number of points per batch           ...       63
Average number of grid points per atom       ...     4662

--------------------
COSX GRID GENERATION
--------------------

GRIDX 1
-------
General Integration Accuracy     IntAcc      ... 3.816
Radial Grid Type                 RadialGrid  ... OptM3 with GC (2021)
Angular Grid (max. ang.)         AngularGrid ... 1 (Lebedev-50)
Angular grid pruning method      GridPruning ... 4 (adaptive)
Weight generation scheme         WeightScheme... mBecke (2022)
Basis function cutoff            BFCut       ... 1.0000e-11
Integration weight cutoff        WCut        ... 1.0000e-14
Partially contracted basis set               ... on
Rotationally invariant grid construction     ... off
Angular grids for H and He will be reduced by one unit

Total number of grid points                  ...     7180
Total number of batches                      ...       65
Average number of points per batch           ...      110
Average number of grid points per atom       ...      598
UseSFitting                                  ... on

GRIDX 2
-------
General Integration Accuracy     IntAcc      ... 4.020
Radial Grid Type                 RadialGrid  ... OptM3 with GC (2021)
Angular Grid (max. ang.)         AngularGrid ... 2 (Lebedev-110)
Angular grid pruning method      GridPruning ... 4 (adaptive)
Weight generation scheme         WeightScheme... mBecke (2022)
Basis function cutoff            BFCut       ... 1.0000e-11
Integration weight cutoff        WCut        ... 1.0000e-14
Partially contracted basis set               ... on
Rotationally invariant grid construction     ... off
Angular grids for H and He will be reduced by one unit

Total number of grid points                  ...    15675
Total number of batches                      ...      128
Average number of points per batch           ...      122
Average number of grid points per atom       ...     1306
UseSFitting                                  ... on

GRIDX 3
-------
General Integration Accuracy     IntAcc      ... 4.338
Radial Grid Type                 RadialGrid  ... OptM3 with GC (2021)
Angular Grid (max. ang.)         AngularGrid ... 3 (Lebedev-194)
Angular grid pruning method      GridPruning ... 4 (adaptive)
Weight generation scheme         WeightScheme... mBecke (2022)
Basis function cutoff            BFCut       ... 1.0000e-11
Integration weight cutoff        WCut        ... 1.0000e-14
Partially contracted basis set               ... on
Rotationally invariant grid construction     ... off
Angular grids for H and He will be reduced by one unit

Total number of grid points                  ...    34552
Total number of batches                      ...      275
Average number of points per batch           ...      125
Average number of grid points per atom       ...     2879
UseSFitting                                  ... on
Initializing property integral containers    ... done (  0.0 sec)

SHARK setup successfully completed in   0.5 seconds

Maximum memory used throughout the entire STARTUP-calculation: 22.8 MB
-------------------------------------------------------------------------------
                                 ORCA GUESS
                   Start orbitals & Density for SCF / CASSCF
-------------------------------------------------------------------------------

------------
SCF SETTINGS
------------
Hamiltonian:
 Density Functional     Method          .... DFT(GTOs)
 Exchange Functional    Exchange        .... B88
   X-Alpha parameter    XAlpha          ....  0.666667
   Becke's b parameter  XBeta           ....  0.004200
 Correlation Functional Correlation     .... LYP
 LDA part of GGA corr.  LDAOpt          .... VWN-5
 Gradients option       PostSCFGGA      .... off
 Hybrid DFT is turned on
   Fraction HF Exchange ScalHFX         ....  0.200000
   Scaling of DF-GGA-X  ScalDFX         ....  0.720000
   Scaling of DF-GGA-C  ScalDFC         ....  0.810000
   Scaling of DF-LDA-C  ScalLDAC        ....  1.000000
   Perturbative correction              ....  0.000000
   NL short-range parameter             ....  4.800000
 RI-approximation to the Coulomb term is turned on
   Number of AuxJ basis functions       .... 360
   RIJ-COSX (HFX calculated with COS-X)).... on


General Settings:
 Integral files         IntName         .... DMC
 Hartree-Fock type      HFTyp           .... RHF
 Total Charge           Charge          ....    0
 Multiplicity           Mult            ....    1
 Number of Electrons    NEL             ....   48
 Basis Dimension        Dim             ....  114
 Nuclear Repulsion      ENuc            ....    250.1488591508 Eh

Convergence Acceleration:
 AO-DIIS                CNVDIIS         .... on
   Start iteration      DIISMaxIt       ....    12
   Startup error        DIISStart       ....  0.200000
   # of expansion vecs  DIISMaxEq       ....     5
   Bias factor          DIISBfac        ....   1.050
   Max. coefficient     DIISMaxC        ....  10.000
 MO-DIIS                CNVKDIIS        .... off
 Trust-Rad. Augm. Hess. CNVTRAH         .... auto
   Auto Start mean grad. ratio tolernc. ....  1.125000
   Auto Start start iteration           ....    50
   Auto Start num. interpolation iter.  ....    10
   Max. Number of Micro iterations      ....    24
   Max. Number of Macro iterations      .... Maxiter - #DIIS iter
   Number of Davidson start vectors     ....     2
   Converg. threshold    (grad. norm)   ....   1.000e-05
   Grad. Scal. Fac. for Micro threshold ....   0.100
   Minimum threshold for Micro iter.    ....   1.000e-02
   NR start threshold (gradient norm)   ....   1.000e-04
   Initial trust radius                 ....   0.400
   Minimum AH scaling param. (alpha)    ....   1.000
   Maximum AH scaling param. (alpha)    .... 1000.000
   Quad. conv. algorithm                .... NR
   White noise on init. David. guess    .... on
   Maximum white noise                  ....   0.010
   Pseudo random numbers                .... off
   Inactive MOs                         .... canonical
   Orbital update algorithm             .... Taylor
   Preconditioner                       .... Diag
   Full preconditioner red. dimension   ....   250
 SOSCF                  CNVSOSCF        .... on
   Start iteration      SOSCFMaxIt      ....   150
   Startup grad/error   SOSCFStart      ....  0.003300
   Hessian update       SOSCFHessUp     .... L-BFGS
 Level Shifting         CNVShift        .... on
   Level shift para.    LevelShift      ....    0.2500
   Turn off err/grad.   ShiftErr        ....    0.0010
 Zerner damping         CNVZerner       .... off
 Static damping         CNVDamp         .... on
   Fraction old density DampFac         ....    0.7000
   Max. Damping (<1)    DampMax         ....    0.9800
   Min. Damping (>=0)   DampMin         ....    0.0000
   Turn off err/grad.   DampErr         ....    0.1000

SCF Procedure:
 Maximum # iterations   MaxIter         ....   125
 SCF integral mode      SCFMode         .... Direct
   Integral package                     .... SHARK and LIBINT hybrid scheme
 Reset frequency        DirectResetFreq ....    20
 Integral Threshold     Thresh          ....  2.500e-11 Eh
 Primitive CutOff       TCut            ....  2.500e-12 Eh

Convergence Tolerance:
 Convergence Check Mode ConvCheckMode   .... Total+1el-Energy
 Convergence forced     ConvForced      .... 0
 Energy Change          TolE            ....  1.000e-08 Eh
 1-El. energy change                    ....  1.000e-05 Eh
 Orbital Gradient       TolG            ....  1.000e-05
 Orbital Rotation angle TolX            ....  1.000e-05
 DIIS Error             TolErr          ....  5.000e-07

------------------------------
INITIAL GUESS: MODEL POTENTIAL
------------------------------
Loading Hartree-Fock densities                     ... done
Calculating cut-offs                               ... done
Initializing the effective Hamiltonian             ... done
Setting up the integral package (SHARK)            ... done
Starting the Coulomb interaction                   ... done (   0.0 sec)
Making the grid                                    ... done (   0.1 sec)
Mapping shells                                     ... done
Starting the XC term evaluation                    ... done (   0.0 sec)
  promolecular density results
     # of electrons  =     47.996674549
     EX              =    -41.786858638
     EC              =     -1.656118762
     EX+EC           =    -43.442977400
Transforming the Hamiltonian                       ... done (   0.0 sec)
Diagonalizing the Hamiltonian                      ... done (   0.0 sec)
Back transforming the eigenvectors                 ... done (   0.0 sec)
Now organizing SCF variables                       ... done
                      ------------------
                      INITIAL GUESS DONE (   0.1 sec)
                      ------------------
             **** ENERGY FILE WAS UPDATED (DMC.en.tmp) ****
Finished Guess after   0.2 sec
Maximum memory used throughout the entire GUESS-calculation: 11.5 MB

-------------------------------------------------------------------------------------------
                                      ORCA LEAN-SCF
                              memory conserving SCF solver
-------------------------------------------------------------------------------------------

----------------------------------------D-I-I-S--------------------------------------------
Iteration    Energy (Eh)           Delta-E    RMSDP     MaxDP     DIISErr   Damp  Time(sec)
-------------------------------------------------------------------------------------------
               ***  Starting incremental Fock matrix formation  ***
    1    -342.9800681351506455     0.00e+00  4.34e-03  1.05e-01  2.81e-01  0.700   1.0
    2    -343.0740106922295354    -9.39e-02  2.48e-03  5.94e-02  1.07e-01  0.700   0.6
                               ***Turning on AO-DIIS***
    3    -343.1054340305561254    -3.14e-02  8.99e-04  1.19e-02  2.94e-02  0.700   0.8
    4    -343.1262062611908732    -2.08e-02  1.43e-03  2.15e-02  1.32e-02  0.000   0.5
    5    -343.1733203545817332    -4.71e-02  2.90e-04  5.38e-03  4.76e-03  0.000   0.6
                              *** Initializing SOSCF ***
---------------------------------------S-O-S-C-F--------------------------------------
Iteration    Energy (Eh)           Delta-E    RMSDP     MaxDP     MaxGrad    Time(sec)
--------------------------------------------------------------------------------------
    6    -343.1734805787740470    -1.60e-04  1.13e-04  1.53e-03  1.77e-03     0.5
               *** Restarting incremental Fock matrix formation ***
    7    -343.1734787369892956     1.84e-06  9.86e-05  2.47e-03  6.84e-04     1.0
    8    -343.1734665415301606     1.22e-05  6.48e-05  1.76e-03  1.61e-03     0.8
    9    -343.1734831232732859    -1.66e-05  1.30e-05  3.45e-04  8.58e-05     0.8
   10    -343.1734830019374840     1.21e-07  7.68e-06  2.10e-04  1.22e-04     0.7
   11    -343.1734832194332512    -2.17e-07  1.50e-06  2.57e-05  8.14e-06     0.7
   12    -343.1734832190284123     4.05e-10  7.29e-07  1.50e-05  6.55e-06     0.6
                 **** Energy Check signals convergence ****

               *****************************************************
               *                     SUCCESS                       *
               *           SCF CONVERGED AFTER  12 CYCLES          *
               *****************************************************

Recomputing exchange energy using gridx3       ... done (    1.548 sec)
Old exchange energy                            :     -8.457839147 Eh
New exchange energy                            :     -8.457863785 Eh
Exchange energy change after final integration :     -0.000024638 Eh
Total energy after final integration           :   -343.173507857 Eh
             **** ENERGY FILE WAS UPDATED (DMC.en.tmp) ****

----------------
TOTAL SCF ENERGY
----------------

Total Energy       :       -343.17350785707890 Eh           -9338.22590 eV

Components:
Nuclear Repulsion  :        250.14885915075948 Eh            6806.89651 eV
Electronic Energy  :       -593.32234236978786 Eh          -16145.12174 eV
One Electron Energy:       -964.30808749967639 Eh          -26240.15708 eV
Two Electron Energy:        370.98574512988853 Eh           10095.03535 eV

Virial components:
Potential Energy   :       -683.44724231898977 Eh          -18597.54494 eV
Kinetic Energy     :        340.27373446191081 Eh            9259.31905 eV
Virial Ratio       :          2.00852188429928

DFT components:
N(Alpha)           :       24.000004270215 electrons
N(Beta)            :       24.000004270215 electrons
N(Total)           :       48.000008540430 electrons
E(X)               :      -33.660172593064 Eh       
E(C)               :       -1.952607309439 Eh       
E(XC)              :      -35.612779902503 Eh       

---------------
SCF CONVERGENCE
---------------

  Last Energy change         ...   -4.0484e-10  Tolerance :   1.0000e-08
  Last MAX-Density change    ...    1.4997e-05  Tolerance :   1.0000e-07
  Last RMS-Density change    ...    7.2930e-07  Tolerance :   5.0000e-09
  Last DIIS Error            ...    1.7717e-03  Tolerance :   5.0000e-07
  Last Orbital Gradient      ...    6.5530e-06  Tolerance :   1.0000e-05
  Last Orbital Rotation      ...    5.5230e-06  Tolerance :   1.0000e-05


----------------
ORBITAL ENERGIES
----------------

  NO   OCC          E(Eh)            E(eV) 
   0   2.0000     -19.179810      -521.9092 
   1   2.0000     -19.179765      -521.9080 
   2   2.0000     -19.121383      -520.3193 
   3   2.0000     -10.357291      -281.8362 
   4   2.0000     -10.243349      -278.7357 
   5   2.0000     -10.243307      -278.7346 
   6   2.0000      -1.122458       -30.5436 
   7   2.0000      -1.042044       -28.3555 
   8   2.0000      -1.000607       -27.2279 
   9   2.0000      -0.750231       -20.4148 
  10   2.0000      -0.687679       -18.7127 
  11   2.0000      -0.575548       -15.6615 
  12   2.0000      -0.542591       -14.7647 
  13   2.0000      -0.504340       -13.7238 
  14   2.0000      -0.484566       -13.1857 
  15   2.0000      -0.461320       -12.5531 
  16   2.0000      -0.440363       -11.9829 
  17   2.0000      -0.436906       -11.8888 
  18   2.0000      -0.401503       -10.9255 
  19   2.0000      -0.370076       -10.0703 
  20   2.0000      -0.354331        -9.6418 
  21   2.0000      -0.306325        -8.3355 
  22   2.0000      -0.306223        -8.3327 
  23   2.0000      -0.288906        -7.8615 
  24   0.0000       0.031934         0.8690 
  25   0.0000       0.070966         1.9311 
  26   0.0000       0.082506         2.2451 
  27   0.0000       0.097078         2.6416 
  28   0.0000       0.124292         3.3822 
  29   0.0000       0.128395         3.4938 
  30   0.0000       0.136444         3.7128 
  31   0.0000       0.140933         3.8350 
  32   0.0000       0.156995         4.2720 
  33   0.0000       0.226082         6.1520 
  34   0.0000       0.319170         8.6851 
*Only the first 10 virtual orbitals were printed.

                    ********************************
                    * MULLIKEN POPULATION ANALYSIS *
                    ********************************

-----------------------
MULLIKEN ATOMIC CHARGES
-----------------------
   0 C :    0.188720
   1 O :   -0.299950
   2 H :    0.035913
   3 H :    0.027707
   4 H :    0.029536
   5 C :    0.314805
   6 O :   -0.299893
   7 C :    0.187846
   8 H :    0.027822
   9 H :    0.036601
  10 H :    0.029526
  11 O :   -0.278635
Sum of atomic charges:   -0.0000000

--------------------------------
MULLIKEN REDUCED ORBITAL CHARGES
--------------------------------
  0 C s       :     2.995004  s :     2.995004
      pz      :     1.041526  p :     2.764919
      px      :     0.737795
      py      :     0.985597
      dz2     :     0.009145  d :     0.051357
      dxz     :     0.009125
      dyz     :     0.007698
      dx2y2   :     0.011249
      dxy     :     0.014139

  1 O s       :     3.745739  s :     3.745739
      pz      :     1.772298  p :     4.537869
      px      :     1.188199
      py      :     1.577373
      dz2     :     0.002268  d :     0.016342
      dxz     :     0.002056
      dyz     :     0.002228
      dx2y2   :     0.002365
      dxy     :     0.007425

  2 H s       :     0.940877  s :     0.940877
      pz      :     0.008564  p :     0.023210
      px      :     0.002854
      py      :     0.011792

  3 H s       :     0.949790  s :     0.949790
      pz      :     0.013434  p :     0.022503
      px      :     0.003412
      py      :     0.005657

  4 H s       :     0.948354  s :     0.948354
      pz      :     0.006343  p :     0.022109
      px      :     0.006601
      py      :     0.009164

  5 C s       :     2.975440  s :     2.975440
      pz      :     0.849666  p :     2.544896
      px      :     0.802296
      py      :     0.892934
      dz2     :     0.009015  d :     0.164859
      dxz     :     0.018159
      dyz     :     0.031703
      dx2y2   :     0.038578
      dxy     :     0.067405

  6 O s       :     3.745535  s :     3.745535
      pz      :     1.772142  p :     4.538024
      px      :     1.173584
      py      :     1.592298
      dz2     :     0.002260  d :     0.016333
      dxz     :     0.002219
      dyz     :     0.002077
      dx2y2   :     0.002391
      dxy     :     0.007386

  7 C s       :     2.995206  s :     2.995206
      pz      :     1.041569  p :     2.765621
      px      :     0.792020
      py      :     0.932031
      dz2     :     0.009019  d :     0.051327
      dxz     :     0.007988
      dyz     :     0.008981
      dx2y2   :     0.009260
      dxy     :     0.016079

  8 H s       :     0.949682  s :     0.949682
      pz      :     0.013434  p :     0.022497
      px      :     0.003687
      py      :     0.005376

  9 H s       :     0.940150  s :     0.940150
      pz      :     0.008387  p :     0.023248
      px      :     0.003392
      py      :     0.011469

 10 H s       :     0.948359  s :     0.948359
      pz      :     0.006510  p :     0.022114
      px      :     0.008616
      py      :     0.006988

 11 O s       :     3.757863  s :     3.757863
      pz      :     1.466308  p :     4.502499
      px      :     1.743235
      py      :     1.292956
      dz2     :     0.002060  d :     0.018272
      dxz     :     0.000083
      dyz     :     0.005613
      dx2y2   :     0.006354
      dxy     :     0.004163



                     *******************************
                     * LOEWDIN POPULATION ANALYSIS *
                     *******************************

----------------------
LOEWDIN ATOMIC CHARGES
----------------------
   0 C :    0.089976
   1 O :   -0.101355
   2 H :    0.021568
   3 H :    0.020076
   4 H :    0.024492
   5 C :    0.107230
   6 O :   -0.101313
   7 C :    0.089917
   8 H :    0.020104
   9 H :    0.021684
  10 H :    0.024449
  11 O :   -0.216827

-------------------------------
LOEWDIN REDUCED ORBITAL CHARGES
-------------------------------
  0 C s       :     2.844168  s :     2.844168
      pz      :     1.087134  p :     2.948844
      px      :     0.812877
      py      :     1.048833
      dz2     :     0.020807  d :     0.117011
      dxz     :     0.020474
      dyz     :     0.019705
      dx2y2   :     0.023653
      dxy     :     0.032372

  1 O s       :     3.457584  s :     3.457584
      pz      :     1.746272  p :     4.613170
      px      :     1.249859
      py      :     1.617039
      dz2     :     0.004213  d :     0.030602
      dxz     :     0.003778
      dyz     :     0.002400
      dx2y2   :     0.004992
      dxy     :     0.015219

  2 H s       :     0.911125  s :     0.911125
      pz      :     0.024288  p :     0.067307
      px      :     0.009152
      py      :     0.033868

  3 H s       :     0.915116  s :     0.915116
      pz      :     0.039295  p :     0.064808
      px      :     0.011076
      py      :     0.014437

  4 H s       :     0.911970  s :     0.911970
      pz      :     0.016068  p :     0.063539
      px      :     0.021066
      py      :     0.026406

  5 C s       :     2.809236  s :     2.809236
      pz      :     0.845742  p :     2.731647
      px      :     0.874118
      py      :     1.011787
      dz2     :     0.019416  d :     0.351887
      dxz     :     0.033803
      dyz     :     0.060068
      dx2y2   :     0.085575
      dxy     :     0.153025

  6 O s       :     3.457509  s :     3.457509
      pz      :     1.746050  p :     4.613214
      px      :     1.241002
      py      :     1.626162
      dz2     :     0.004201  d :     0.030590
      dxz     :     0.003970
      dyz     :     0.002223
      dx2y2   :     0.005227
      dxy     :     0.014969

  7 C s       :     2.844151  s :     2.844151
      pz      :     1.087150  p :     2.948975
      px      :     0.860480
      py      :     1.001345
      dz2     :     0.020472  d :     0.116957
      dxz     :     0.017821
      dyz     :     0.022749
      dx2y2   :     0.019637
      dxy     :     0.036278

  8 H s       :     0.915106  s :     0.915106
      pz      :     0.039299  p :     0.064790
      px      :     0.011184
      py      :     0.014307

  9 H s       :     0.910866  s :     0.910866
      pz      :     0.023729  p :     0.067450
      px      :     0.010004
      py      :     0.033717

 10 H s       :     0.911992  s :     0.911992
      pz      :     0.016582  p :     0.063559
      px      :     0.026696
      py      :     0.020281

 11 O s       :     3.560070  s :     3.560070
      pz      :     1.458169  p :     4.625684
      px      :     1.728025
      py      :     1.439490
      dz2     :     0.004573  d :     0.031074
      dxz     :     0.000086
      dyz     :     0.006886
      dx2y2   :     0.013675
      dxy     :     0.005853



                      *****************************
                      * MAYER POPULATION ANALYSIS *
                      *****************************

  NA   - Mulliken gross atomic population
  ZA   - Total nuclear charge
  QA   - Mulliken gross atomic charge
  VA   - Mayer's total valence
  BVA  - Mayer's bonded valence
  FA   - Mayer's free valence

  ATOM       NA         ZA         QA         VA         BVA        FA
  0 C      5.8113     6.0000     0.1887     3.9078     3.9078    -0.0000
  1 O      8.3000     8.0000    -0.3000     2.2014     2.2014    -0.0000
  2 H      0.9641     1.0000     0.0359     1.0086     1.0086    -0.0000
  3 H      0.9723     1.0000     0.0277     0.9897     0.9897    -0.0000
  4 H      0.9705     1.0000     0.0295     0.9891     0.9891    -0.0000
  5 C      5.6852     6.0000     0.3148     4.4100     4.4100    -0.0000
  6 O      8.2999     8.0000    -0.2999     2.2016     2.2016     0.0000
  7 C      5.8122     6.0000     0.1878     3.9069     3.9069    -0.0000
  8 H      0.9722     1.0000     0.0278     0.9894     0.9894     0.0000
  9 H      0.9634     1.0000     0.0366     1.0093     1.0093    -0.0000
 10 H      0.9705     1.0000     0.0295     0.9891     0.9891    -0.0000
 11 O      8.2786     8.0000    -0.2786     2.1992     2.1992     0.0000

  Mayer bond orders larger than 0.100000
B(  0-C ,  1-O ) :   0.9308 B(  0-C ,  2-H ) :   0.9696 B(  0-C ,  3-H ) :   0.9797 
B(  0-C ,  4-H ) :   0.9799 B(  1-O ,  5-C ) :   1.1753 B(  5-C ,  6-O ) :   1.1755 
B(  5-C , 11-O ) :   1.9734 B(  6-O ,  7-C ) :   0.9307 B(  7-C ,  8-H ) :   0.9799 
B(  7-C ,  9-H ) :   0.9691 B(  7-C , 10-H ) :   0.9799 

-------
TIMINGS
-------

Total SCF time: 0 days 0 hours 0 min 10 sec 

Total time                  ....      10.055 sec
Sum of individual times     ....      10.036 sec  ( 99.8%)

SCF preparation             ....       0.026 sec  (  0.3%)
Fock matrix formation       ....       9.970 sec  ( 99.1%)
  Startup                   ....       0.002 sec  (  0.0% of F)
  Split-RI-J                ....       0.596 sec  (  6.0% of F)
  Chain of spheres X        ....       7.400 sec  ( 74.2% of F)
  XC integration            ....       1.957 sec  ( 19.6% of F)
    Basis function eval.    ....       0.852 sec  ( 43.5% of XC)
    Density eval.           ....       0.354 sec  ( 18.1% of XC)
    XC-Functional eval.     ....       0.123 sec  (  6.3% of XC)
    XC-Potential eval.      ....       0.500 sec  ( 25.5% of XC)
Diagonalization             ....       0.000 sec  (  0.0%)
Density matrix formation    ....       0.004 sec  (  0.0%)
Total Energy calculation    ....       0.005 sec  (  0.1%)
Population analysis         ....       0.004 sec  (  0.0%)
Orbital Transformation      ....       0.003 sec  (  0.0%)
Orbital Orthonormalization  ....       0.000 sec  (  0.0%)
DIIS solution               ....       0.013 sec  (  0.1%)
SOSCF solution              ....       0.010 sec  (  0.1%)
Finished LeanSCF after  10.1 sec

Maximum memory used throughout the entire LEANSCF-calculation: 12.1 MB


-------------------------------------------------------------------------------
                          DFT DISPERSION CORRECTION                            
                                                                               
                              DFTD3 V3.1  Rev 1                                
                          USING Becke-Johnson damping                          
-------------------------------------------------------------------------------
The B3LYP functional is recognized
Active option DFTDOPT                   ...         4   

molecular C6(AA) [au] = 1151.171083 


            DFT-D V3
 parameters
 s6 scaling factor         :     1.0000 
 a1 scaling factor         :     0.3981 
 s8 scaling factor         :     1.9889 
 a2 scaling factor         :     4.4211 
 ad hoc parameters k1-k3   :    16.0000     1.3333    -4.0000 

 Edisp/kcal,au: -7.675977751955  -0.012232447876 
 E6   /kcal   :  -3.761590195 
 E8   /kcal   :  -3.914387557 
 % E8         :  50.995295755 

-------------------------   ----------------
Dispersion correction           -0.012232448
-------------------------   ----------------


-------------------------   --------------------
FINAL SINGLE POINT ENERGY      -343.185740304955
-------------------------   --------------------

------------------------------------------------------------------------------
                         ORCA SCF GRADIENT CALCULATION
------------------------------------------------------------------------------

Nuc. rep. gradient        (SHARK) ... done (  0.0 sec)
HCore & Overlap gradient  (SHARK) ... done (  0.0 sec)
Split-RIJ-J gradient      (SHARK) ... done (  0.2 sec)
COSX-gradient                     ... done (  5.5 sec)
XC gradient                       ... done (  1.2 sec)
Dispersion correction             ... done (  0.0 sec)

-------------------
DISPERSION GRADIENT
-------------------

   1   C   :   -0.000219313   -0.000039275   -0.000000345
   2   O   :   -0.000183882   -0.000115286    0.000002189
   3   H   :   -0.000160797    0.000025522   -0.000045711
   4   H   :   -0.000187949   -0.000020903    0.000074979
   5   H   :   -0.000163793   -0.000067872   -0.000021572
   6   C   :    0.000000344   -0.000014985   -0.000003956
   7   O   :    0.000202410   -0.000078840    0.000000370
   8   C   :    0.000223632    0.000002400   -0.000002464
   9   H   :    0.000190008    0.000013318    0.000073412
  10   H   :    0.000151981    0.000055965   -0.000045907
  11   H   :    0.000173522   -0.000035817   -0.000024372
  12   O   :   -0.000026165    0.000275774   -0.000006622

Difference to translation invariance:
           :    0.0000000000    0.0000000000   -0.0000000000

Difference to rotation invariance:
           :   -0.0000000000   -0.0000000000    0.0000000000

Norm of the Dispersion gradient    ...    0.0006890951
RMS gradient                       ...    0.0001148492
MAX gradient                       ...    0.0002757740

------------------
CARTESIAN GRADIENT
------------------

   1   C   :    0.001322857    0.003741215    0.001027547
   2   O   :   -0.012713918   -0.013408479    0.003641284
   3   H   :   -0.002582904   -0.004275688   -0.000582570
   4   H   :    0.001613416   -0.004592909   -0.003723868
   5   H   :   -0.001045564    0.005719872    0.000199103
   6   C   :    0.000706041   -0.007207250   -0.001989606
   7   O   :    0.015051260   -0.010903240    0.003624196
   8   C   :   -0.002120954    0.003404784    0.001078508
   9   H   :   -0.000856399   -0.004706524   -0.003841235
  10   H   :    0.003544516   -0.003582936   -0.000661106
  11   H   :   -0.000103651    0.005789769    0.000247461
  12   O   :   -0.002814702    0.030021386    0.000980287

Difference to translation invariance:
           :   -0.0000000000   -0.0000000001    0.0000000000

Difference to rotation invariance:
           :    0.0000192826   -0.0000990499   -0.0000404320

Norm of the Cartesian gradient     ...    0.0436766491
RMS gradient                       ...    0.0072794415
MAX gradient                       ...    0.0300213861

-------
TIMINGS
-------

Total SCF gradient time     ....        6.994 sec

Densities                   ....       0.000 sec  (  0.0%)
One electron gradient       ....       0.024 sec  (  0.3%)
RI-J Coulomb gradient       ....       0.209 sec  (  3.0%)
COSX gradient               ....       5.545 sec  ( 79.3%)
XC gradient                 ....       1.191 sec  ( 17.0%)

Maximum memory used throughout the entire SCFGRAD-calculation: 27.9 MB
------------------------------------------------------------------------------
                         ORCA GEOMETRY RELAXATION STEP
------------------------------------------------------------------------------

Reading the OPT-File                    .... done
Getting information on internals        .... done
Copying old internal coords+grads       .... done
Making the new internal coordinates     .... (2022 redundants) done
Validating the new internal coordinates .... (2022 redundants) done
Calculating the B-matrix                .... done
Calculating the G,G- and P matrices     .... done
Transforming gradient to internals      .... done
Projecting the internal gradient        .... done
Number of atoms                         ....  12
Number of internal coordinates          ....  38
Current Energy                          ....  -343.185740305 Eh
Current gradient norm                   ....     0.043676649 Eh/bohr
Maximum allowed component of the step   ....  0.300
Current trust radius                    ....  0.300
Evaluating the initial hessian          ....  (Almloef) done
Projecting the Hessian                  .... done
Forming the augmented Hessian           .... done
Diagonalizing the augmented Hessian     .... done
Last element of RFO vector              ....  0.995135542
Lowest eigenvalues of augmented Hessian:
 -0.002987506  0.018881176  0.018951077  0.029624876  0.029627379
Length of the computed step             ....  0.098996812
The final length of the internal step   ....  0.098996812
Converting the step to Cartesian space:
 Initial RMS(Int)=    0.0160594036
Transforming coordinates:
 Iter   0:  RMS(Cart)=    0.0238828300 RMS(Int)=    0.0161039966
done
Storing new coordinates                 .... done

                                .--------------------.
          ----------------------|Geometry convergence|-------------------------
          Item                value                   Tolerance       Converged
          ---------------------------------------------------------------------
          RMS gradient        0.0070628858            0.0001000000      NO
          MAX gradient        0.0301651230            0.0003000000      NO
          RMS step            0.0160594036            0.0020000000      NO
          MAX step            0.0312643549            0.0040000000      NO
          ........................................................
          Max(Bonds)      0.0154      Max(Angles)    1.13
          Max(Dihed)        1.79      Max(Improp)    0.00
          ---------------------------------------------------------------------

The optimization has not yet converged - more geometry cycles are needed


    ---------------------------------------------------------------------------
                         Redundant Internal Coordinates
                            (Angstroem and degrees)

        Definition                    Value    dE/dq     Step     New-Value
    ----------------------------------------------------------------------------
     1. B(O   1,C   0)                1.4267  0.000885 -0.0010    1.4257   
     2. B(H   2,C   0)                1.0948 -0.002848  0.0042    1.0990   
     3. B(H   3,C   0)                1.0938 -0.005076  0.0075    1.1013   
     4. B(H   4,C   0)                1.0938 -0.003378  0.0050    1.0988   
     5. B(C   5,O   1)                1.3559  0.018530 -0.0154    1.3405   
     6. B(O   6,C   5)                1.3558  0.018434 -0.0153    1.3405   
     7. B(C   7,O   6)                1.4267  0.000938 -0.0010    1.4257   
     8. B(H   8,C   7)                1.0938 -0.005127  0.0076    1.1014   
     9. B(H   9,C   7)                1.0947 -0.002794  0.0041    1.0989   
    10. B(H  10,C   7)                1.0938 -0.003404  0.0050    1.0988   
    11. B(O  11,C   5)                1.2218  0.030165 -0.0153    1.2064   
    12. A(H   2,C   0,H   4)          107.97 -0.005247    1.11    109.08   
    13. A(H   3,C   0,H   4)          108.56 -0.002334    0.54    109.10   
    14. A(O   1,C   0,H   3)          109.70 -0.003187    0.47    110.16   
    15. A(O   1,C   0,H   2)          112.03  0.002665   -0.52    111.51   
    16. A(H   2,C   0,H   3)          110.60  0.002516   -0.71    109.89   
    17. A(O   1,C   0,H   4)          107.86  0.005484   -0.85    107.01   
    18. A(C   0,O   1,C   5)          114.82 -0.003453    0.48    115.30   
    19. A(O   1,C   5,O  11)          125.99 -0.000486    0.06    126.06   
    20. A(O   1,C   5,O   6)          107.99  0.001039   -0.13    107.86   
    21. A(O   6,C   5,O  11)          126.02 -0.000553    0.07    126.09   
    22. A(C   5,O   6,C   7)          114.89 -0.003426    0.47    115.37   
    23. A(H   8,C   7,H  10)          108.56 -0.002274    0.53    109.09   
    24. A(O   6,C   7,H  10)          107.85  0.005323   -0.83    107.03   
    25. A(H   9,C   7,H  10)          107.96 -0.005346    1.13    109.09   
    26. A(H   8,C   7,H   9)          110.58  0.002356   -0.68    109.90   
    27. A(O   6,C   7,H   9)          112.13  0.003065   -0.59    111.54   
    28. A(O   6,C   7,H   8)          109.65 -0.003237    0.48    110.12   
    29. D(C   5,O   1,C   0,H   4)    160.35 -0.000492    1.34    161.69   
    30. D(C   5,O   1,C   0,H   2)     41.66  0.000890    0.82     42.48   
    31. D(C   5,O   1,C   0,H   3)    -81.57 -0.001895    1.76    -79.82   
    32. D(O  11,C   5,O   1,C   0)      1.10  0.000457   -0.80      0.30   
    33. D(O   6,C   5,O   1,C   0)   -178.96  0.000568   -1.00   -179.96   
    34. D(C   7,O   6,C   5,O  11)     -1.10 -0.000442    0.78     -0.33   
    35. D(C   7,O   6,C   5,O   1)    178.96 -0.000553    0.97    179.93   
    36. D(H  10,C   7,O   6,C   5)   -159.18  0.000478   -1.36   -160.55   
    37. D(H   9,C   7,O   6,C   5)    -40.45 -0.000883   -0.85    -41.31   
    38. D(H   8,C   7,O   6,C   5)     82.78  0.001934   -1.79     80.99   
    ----------------------------------------------------------------------------

Geometry step timings:
Preparation and reading OPT file:      0.000 s (14.263 %)
Internal coordinates            :      0.000 s ( 6.417 %)
B/P matrices and projection     :      0.000 s (15.152 %)
Hessian update/contruction      :      0.001 s (26.366 %)
Making the step                 :      0.000 s ( 6.417 %)
Converting the step to Cartesian:      0.000 s ( 0.794 %)
Storing new data                :      0.000 s ( 1.874 %)
Checking convergence            :      0.000 s ( 0.032 %)
Final printing                  :      0.001 s (28.335 %)
Total time                      :      0.003 s

Time for energy+gradient        :     18.068 s
Time for complete geometry iter :     18.147 s

         *************************************************************
         *                GEOMETRY OPTIMIZATION CYCLE   2            *
         *************************************************************
---------------------------------
CARTESIAN COORDINATES (ANGSTROEM)
---------------------------------
  C     -4.137948    1.256982    0.003233
  O     -2.827892    0.694895   -0.017990
  H     -4.215225    2.124440   -0.667086
  H     -4.408261    1.551211    1.029550
  H     -4.828896    0.474823   -0.340394
  C     -1.823478    1.582538   -0.003989
  O     -0.670515    0.899089   -0.027870
  C      0.511968    1.695555   -0.018787
  H      0.743346    2.018617    1.008419
  H      0.412679    2.572701   -0.673246
  H      1.329645    1.061765   -0.389033
  O     -1.937292    2.783145    0.029334

----------------------------
CARTESIAN COORDINATES (A.U.)
----------------------------
  NO LB      ZA    FRAG     MASS         X           Y           Z
   0 C     6.0000    0    12.011   -7.819589    2.375351    0.006110
   1 O     8.0000    0    15.999   -5.343942    1.313162   -0.033996
   2 H     1.0000    0     1.008   -7.965620    4.014609   -1.260610
   3 H     1.0000    0     1.008   -8.330406    2.931364    1.945568
   4 H     1.0000    0     1.008   -9.125291    0.897285   -0.643251
   5 C     6.0000    0    12.011   -3.445874    2.990563   -0.007538
   6 O     8.0000    0    15.999   -1.267090    1.699032   -0.052667
   7 C     6.0000    0    12.011    0.967480    3.204134   -0.035503
   8 H     1.0000    0     1.008    1.404720    3.814634    1.905636
   9 H     1.0000    0     1.008    0.779849    4.861700   -1.272251
  10 H     1.0000    0     1.008    2.512664    2.006445   -0.735167
  11 O     8.0000    0    15.999   -3.660951    5.259382    0.055433

--------------------------------
INTERNAL COORDINATES (ANGSTROEM)
--------------------------------
 C      0   0   0     0.000000000000     0.00000000     0.00000000
 O      1   0   0     1.425706326551     0.00000000     0.00000000
 H      1   2   0     1.098991894022   111.51366359     0.00000000
 H      1   2   3     1.101347353324   110.16508309   237.69799180
 H      1   2   3     1.098753904012   107.00942106   119.21289281
 C      2   1   3     1.340505195518   115.29530507    42.48395100
 O      6   2   1     1.340520660227   107.85804184   180.03903168
 C      7   6   2     1.425730315238   115.36712092   179.93032263
 H      8   7   6     1.101389243795   110.12310897    80.98998396
 H      8   7   6     1.098890742196   111.54161699   318.69518286
 H      8   7   6     1.098802076450   107.02701210   199.45134890
 O      6   2   1     1.206449986837   126.05532353     0.29579445

---------------------------
INTERNAL COORDINATES (A.U.)
---------------------------
 C      0   0   0     0.000000000000     0.00000000     0.00000000
 O      1   0   0     2.694194504581     0.00000000     0.00000000
 H      1   2   0     2.076793703100   111.51366359     0.00000000
 H      1   2   3     2.081244876102   110.16508309   237.69799180
 H      1   2   3     2.076343967160   107.00942106   119.21289281
 C      2   1   3     2.533187700628   115.29530507    42.48395100
 O      6   2   1     2.533216924692   107.85804184   180.03903168
 C      7   6   2     2.694239836629   115.36712092   179.93032263
 H      8   7   6     2.081324037619   110.12310897    80.98998396
 H      8   7   6     2.076602553852   111.54161699   318.69518286
 H      8   7   6     2.076434999874   107.02701210   199.45134890
 O      6   2   1     2.279860069395   126.05532353     0.29579445

------------------------------------------------------------------------------
                   ___                                                        
                  /   \      - P O W E R E D   B Y -                         
                 /     \                                                     
                 |  |  |   _    _      __       _____    __    __             
                 |  |  |  | |  | |    /  \     |  _  \  |  |  /  |          
                  \  \/   | |  | |   /    \    | | | |  |  | /  /          
                 / \  \   | |__| |  /  /\  \   | |_| |  |  |/  /          
                |  |  |   |  __  | /  /__\  \  |    /   |      \           
                |  |  |   | |  | | |   __   |  |    \   |  |\   \          
                \     /   | |  | | |  |  |  |  | |\  \  |  | \   \       
                 \___/    |_|  |_| |__|  |__|  |_| \__\ |__|  \__/        
                                                                              
                      - O R C A' S   B I G   F R I E N D -                    
                                      &                                       
                       - I N T E G R A L  F E E D E R -                       
                                                                              
 v1 FN, 2020, v2 2021, v3 2022-2024                                           
------------------------------------------------------------------------------


----------------------
SHARK INTEGRAL PACKAGE
----------------------

Number of atoms                             ...     12
Number of basis functions                   ...    114
Number of shells                            ...     54
Maximum angular momentum                    ...      2
Integral batch strategy                     ... SHARK/LIBINT Hybrid
RI-J (if used) integral strategy            ... SPLIT-RIJ (Revised 2003 algorithm where possible)
Printlevel                                  ...      1
Contraction scheme used                     ... SEGMENTED contraction
Prescreening option                         ... SCHWARTZ
   Thresh                                   ... 2.500e-11
   Tcut                                     ... 2.500e-12
   Tpresel                                  ... 2.500e-12 
Coulomb Range Separation                    ... NOT USED
Exchange Range Separation                   ... NOT USED
Multipole approximations                    ... NOT USED
Finite Nucleus Model                        ... NOT USED
CABS basis                                  ... NOT available
Auxiliary Coulomb fitting basis             ... AVAILABLE
   # of basis functions in Aux-J            ...    360
   # of shells in Aux-J                     ...    120
   Maximum angular momentum in Aux-J        ...      4
Auxiliary J/K fitting basis                 ... NOT available
Auxiliary Correlation fitting basis         ... NOT available
Auxiliary 'external' fitting basis          ... NOT available

Checking pre-screening integrals            ... done (  0.0 sec) Dimension = 54
Check shell pair data                       ... done (  0.0 sec)
Shell pair information
Shell pair cut-off parameter TPreSel        ...   2.5e-12
Total number of shell pairs                 ...      1485
Shell pairs after pre-screening             ...      1405
Total number of primitive shell pairs       ...      5349
Primitive shell pairs kept                  ...      3833
          la=0 lb=0:    440 shell pairs
          la=1 lb=0:    510 shell pairs
          la=1 lb=1:    160 shell pairs
          la=2 lb=0:    172 shell pairs
          la=2 lb=1:    102 shell pairs
          la=2 lb=2:     21 shell pairs

Calculating one electron integrals          ... done (  0.0 sec)
Calculating RI/J V-Matrix + Cholesky decomp.... done (  0.0 sec)
Calculating Nuclear repulsion               ... done (  0.0 sec) ENN=    251.648883526568 Eh

Diagonalization of the overlap matrix:
Smallest eigenvalue                        ... 8.931e-03
Time for diagonalization                   ...    0.001 sec
Threshold for overlap eigenvalues          ... 1.000e-07
Number of eigenvalues below threshold      ... 0
Time for construction of square roots      ...    0.000 sec
Total time needed                          ...    0.001 sec

-------------------
DFT GRID GENERATION
-------------------

General Integration Accuracy     IntAcc      ... 4.388
Radial Grid Type                 RadialGrid  ... OptM3 with GC (2021)
Angular Grid (max. ang.)         AngularGrid ... 4 (Lebedev-302)
Angular grid pruning method      GridPruning ... 4 (adaptive)
Weight generation scheme         WeightScheme... mBecke (2022)
Basis function cutoff            BFCut       ... 1.0000e-11
Integration weight cutoff        WCut        ... 1.0000e-14
Partially contracted basis set               ... off
Rotationally invariant grid construction     ... off
Angular grids for H and He will be reduced by one unit

Total number of grid points                  ...    55941
Total number of batches                      ...      880
Average number of points per batch           ...       63
Average number of grid points per atom       ...     4662

--------------------
COSX GRID GENERATION
--------------------

GRIDX 1
-------
General Integration Accuracy     IntAcc      ... 3.816
Radial Grid Type                 RadialGrid  ... OptM3 with GC (2021)
Angular Grid (max. ang.)         AngularGrid ... 1 (Lebedev-50)
Angular grid pruning method      GridPruning ... 4 (adaptive)
Weight generation scheme         WeightScheme... mBecke (2022)
Basis function cutoff            BFCut       ... 1.0000e-11
Integration weight cutoff        WCut        ... 1.0000e-14
Partially contracted basis set               ... on
Rotationally invariant grid construction     ... off
Angular grids for H and He will be reduced by one unit

Total number of grid points                  ...     7175
Total number of batches                      ...       65
Average number of points per batch           ...      110
Average number of grid points per atom       ...      598
UseSFitting                                  ... on

GRIDX 2
-------
General Integration Accuracy     IntAcc      ... 4.020
Radial Grid Type                 RadialGrid  ... OptM3 with GC (2021)
Angular Grid (max. ang.)         AngularGrid ... 2 (Lebedev-110)
Angular grid pruning method      GridPruning ... 4 (adaptive)
Weight generation scheme         WeightScheme... mBecke (2022)
Basis function cutoff            BFCut       ... 1.0000e-11
Integration weight cutoff        WCut        ... 1.0000e-14
Partially contracted basis set               ... on
Rotationally invariant grid construction     ... off
Angular grids for H and He will be reduced by one unit

Total number of grid points                  ...    15675
Total number of batches                      ...      129
Average number of points per batch           ...      121
Average number of grid points per atom       ...     1306
UseSFitting                                  ... on

GRIDX 3
-------
General Integration Accuracy     IntAcc      ... 4.338
Radial Grid Type                 RadialGrid  ... OptM3 with GC (2021)
Angular Grid (max. ang.)         AngularGrid ... 3 (Lebedev-194)
Angular grid pruning method      GridPruning ... 4 (adaptive)
Weight generation scheme         WeightScheme... mBecke (2022)
Basis function cutoff            BFCut       ... 1.0000e-11
Integration weight cutoff        WCut        ... 1.0000e-14
Partially contracted basis set               ... on
Rotationally invariant grid construction     ... off
Angular grids for H and He will be reduced by one unit

Total number of grid points                  ...    34548
Total number of batches                      ...      275
Average number of points per batch           ...      125
Average number of grid points per atom       ...     2879
UseSFitting                                  ... on
Initializing property integral containers    ... done (  0.0 sec)

SHARK setup successfully completed in   0.5 seconds

Maximum memory used throughout the entire STARTUP-calculation: 22.9 MB
Occupation numbers will be reassigned to an Aufbau configuration
             **** ENERGY FILE WAS UPDATED (DMC.en.tmp) ****
Finished Guess after   0.0 sec
Maximum memory used throughout the entire GUESS-calculation: 8.1 MB
----------------------------------------D-I-I-S--------------------------------------------
Iteration    Energy (Eh)           Delta-E    RMSDP     MaxDP     DIISErr   Damp  Time(sec)
-------------------------------------------------------------------------------------------
               ***  Starting incremental Fock matrix formation  ***
    1    -343.1744153257577636     0.00e+00  1.65e-04  2.21e-03  7.43e-03  0.700   1.0
    2    -343.1746651861160444    -2.50e-04  1.43e-04  1.86e-03  5.86e-03  0.700   0.6
                               ***Turning on AO-DIIS***
    3    -343.1748486248559402    -1.83e-04  1.12e-04  1.47e-03  4.40e-03  0.700   0.5
                              *** Initializing SOSCF ***
---------------------------------------S-O-S-C-F--------------------------------------
Iteration    Energy (Eh)           Delta-E    RMSDP     MaxDP     MaxGrad    Time(sec)
--------------------------------------------------------------------------------------
    4    -343.1749794325061202    -1.31e-04  2.84e-04  3.68e-03  3.20e-03     0.5
               *** Restarting incremental Fock matrix formation ***
    5    -343.1753027071654287    -3.23e-04  4.01e-05  1.04e-03  1.85e-04     1.0
    6    -343.1753029297037756    -2.23e-07  1.95e-05  5.62e-04  1.87e-04     0.8
    7    -343.1753039684936084    -1.04e-06  4.52e-06  7.17e-05  2.38e-05     0.7
    8    -343.1753039593220365     9.17e-09  2.68e-06  5.04e-05  4.56e-05     0.6
                 **** Energy Check signals convergence ****

               *****************************************************
               *                     SUCCESS                       *
               *           SCF CONVERGED AFTER   8 CYCLES          *
               *****************************************************

Recomputing exchange energy using gridx3       ... done (    1.579 sec)
Old exchange energy                            :     -8.462989918 Eh
New exchange energy                            :     -8.463011387 Eh
Exchange energy change after final integration :     -0.000021470 Eh
Total energy after final integration           :   -343.175325429 Eh
             **** ENERGY FILE WAS UPDATED (DMC.en.tmp) ****

----------------
TOTAL SCF ENERGY
----------------

Total Energy       :       -343.17532542907833 Eh           -9338.27535 eV

Components:
Nuclear Repulsion  :        251.64888352656797 Eh            6847.71425 eV
Electronic Energy  :       -594.82418748588998 Eh          -16185.98902 eV
One Electron Energy:       -967.28356209270135 Eh          -26321.12386 eV
Two Electron Energy:        372.45937460681131 Eh           10135.13484 eV

Virial components:
Potential Energy   :       -683.53667701486040 Eh          -18599.97859 eV
Kinetic Energy     :        340.36135158578207 Eh            9261.70323 eV
Virial Ratio       :          2.00826760685426

DFT components:
N(Alpha)           :       24.000002977753 electrons
N(Beta)            :       24.000002977753 electrons
N(Total)           :       48.000005955507 electrons
E(X)               :      -33.675941610512 Eh       
E(C)               :       -1.953878945533 Eh       
E(XC)              :      -35.629820556045 Eh       

[...]
  34   0.0000       0.342550         9.3212 
*Only the first 10 virtual orbitals were printed.

                    ********************************
                    * MULLIKEN POPULATION ANALYSIS *
                    ********************************

-----------------------
MULLIKEN ATOMIC CHARGES
-----------------------
   0 C :    0.188266
   1 O :   -0.288909
   2 H :    0.030171
   3 H :    0.030191
   4 H :    0.034272
   5 C :    0.285378
   6 O :   -0.288996
   7 C :    0.188530
   8 H :    0.030140
   9 H :    0.030101
  10 H :    0.034143
  11 O :   -0.273287
Sum of atomic charges:   -0.0000000

--------------------------------
MULLIKEN REDUCED ORBITAL CHARGES
--------------------------------
  0 C s       :     3.004395  s :     3.004395
      pz      :     1.038380  p :     2.755978
      px      :     0.739285
      py      :     0.978313
      dz2     :     0.009750  d :     0.051361
      dxz     :     0.007933
      dyz     :     0.007906
      dx2y2   :     0.011217
      dxy     :     0.014556

  1 O s       :     3.734563  s :     3.734563
      pz      :     1.757688  p :     4.537594
      px      :     1.185282
      py      :     1.594624
      dz2     :     0.002312  d :     0.016751
      dxz     :     0.002446
      dyz     :     0.002347
      dx2y2   :     0.002368
      dxy     :     0.007279

  2 H s       :     0.947410  s :     0.947410
      pz      :     0.008832  p :     0.022419
      px      :     0.002913
      py      :     0.010674

  3 H s       :     0.947394  s :     0.947394
      pz      :     0.013476  p :     0.022415
      px      :     0.002744
      py      :     0.006196

  4 H s       :     0.944136  s :     0.944136
      pz      :     0.005295  p :     0.021592
      px      :     0.006423
      py      :     0.009874

  5 C s       :     2.967170  s :     2.967170
      pz      :     0.855005  p :     2.573811
      px      :     0.810326
      py      :     0.908480
      dz2     :     0.013368  d :     0.173642
      dxz     :     0.022671
      dyz     :     0.030125
      dx2y2   :     0.039997
      dxy     :     0.067479

  6 O s       :     3.734581  s :     3.734581
      pz      :     1.757754  p :     4.537661
      px      :     1.171880
      py      :     1.608027
      dz2     :     0.002314  d :     0.016754
      dxz     :     0.002601
      dyz     :     0.002189
      dx2y2   :     0.002434
      dxy     :     0.007216

  7 C s       :     3.004280  s :     3.004280
      pz      :     1.039238  p :     2.755827
      px      :     0.790015
      py      :     0.926573
      dz2     :     0.009684  d :     0.051364
      dxz     :     0.006214
      dyz     :     0.009664
      dx2y2   :     0.009302
      dxy     :     0.016499

  8 H s       :     0.947442  s :     0.947442
      pz      :     0.013437  p :     0.022419
      px      :     0.003021
      py      :     0.005961

  9 H s       :     0.947477  s :     0.947477
      pz      :     0.008887  p :     0.022423
      px      :     0.002951
      py      :     0.010585

 10 H s       :     0.944263  s :     0.944263
      pz      :     0.005321  p :     0.021594
      px      :     0.008654
      py      :     0.007619

 11 O s       :     3.743216  s :     3.743216
      pz      :     1.453502  p :     4.511061
      px      :     1.746002
      py      :     1.311557
      dz2     :     0.002452  d :     0.019010
      dxz     :     0.000339
      dyz     :     0.006020
      dx2y2   :     0.006173
      dxy     :     0.004025



                     *******************************
                     * LOEWDIN POPULATION ANALYSIS *
                     *******************************

----------------------
LOEWDIN ATOMIC CHARGES
----------------------
   0 C :    0.089658
   1 O :   -0.091379
   2 H :    0.021202
   3 H :    0.021189
   4 H :    0.025858
   5 C :    0.076355
   6 O :   -0.091374
   7 C :    0.089703
   8 H :    0.021189
   9 H :    0.021169
  10 H :    0.025824
  11 O :   -0.209393

-------------------------------
LOEWDIN REDUCED ORBITAL CHARGES
-------------------------------
  0 C s       :     2.849688  s :     2.849688
      pz      :     1.084576  p :     2.943875
      px      :     0.812657
      py      :     1.046643
      dz2     :     0.022537  d :     0.116779
      dxz     :     0.016948
      dyz     :     0.020320
      dx2y2   :     0.023043
      dxy     :     0.033931

  1 O s       :     3.445659  s :     3.445659
      pz      :     1.734828  p :     4.613978
      px      :     1.249390
      py      :     1.629761
      dz2     :     0.004207  d :     0.031741
      dxz     :     0.004653
      dyz     :     0.002710
      dx2y2   :     0.005223
      dxy     :     0.014947

  2 H s       :     0.914164  s :     0.914164
      pz      :     0.024569  p :     0.064634
      px      :     0.009466
      py      :     0.030599

  3 H s       :     0.914194  s :     0.914194
      pz      :     0.039797  p :     0.064617
      px      :     0.008958
      py      :     0.015862

  4 H s       :     0.911460  s :     0.911460
      pz      :     0.013240  p :     0.062682
      px      :     0.020625
      py      :     0.028817

  5 C s       :     2.796094  s :     2.796094
      pz      :     0.857490  p :     2.753296
      px      :     0.882800
      py      :     1.013006
      dz2     :     0.027311  d :     0.374255
      dxz     :     0.044503
      dyz     :     0.059552
      dx2y2   :     0.088528
      dxy     :     0.154362

  6 O s       :     3.445638  s :     3.445638
      pz      :     1.734909  p :     4.613992
      px      :     1.242066
      py      :     1.637017
      dz2     :     0.004200  d :     0.031744
      dxz     :     0.004908
      dyz     :     0.002471
      dx2y2   :     0.005515
      dxy     :     0.014650

  7 C s       :     2.849674  s :     2.849674
      pz      :     1.085320  p :     2.943833
      px      :     0.857520
      py      :     1.000992
      dz2     :     0.022332  d :     0.116791
      dxz     :     0.012639
      dyz     :     0.024800
      dx2y2   :     0.019344
      dxy     :     0.037677

  8 H s       :     0.914181  s :     0.914181
      pz      :     0.039675  p :     0.064630
      px      :     0.009160
      py      :     0.015795

  9 H s       :     0.914206  s :     0.914206
      pz      :     0.024721  p :     0.064625
      px      :     0.008975
      py      :     0.030929

 10 H s       :     0.911496  s :     0.911496
      pz      :     0.013307  p :     0.062680
      px      :     0.026969
      py      :     0.022403

 11 O s       :     3.547340  s :     3.547340
      pz      :     1.453822  p :     4.629742
      px      :     1.727089
      py      :     1.448831
      dz2     :     0.004406  d :     0.032311
      dxz     :     0.000459
      dyz     :     0.008857
      dx2y2   :     0.012812
      dxy     :     0.005777



                      *****************************
                      * MAYER POPULATION ANALYSIS *
                      *****************************

  NA   - Mulliken gross atomic population
  ZA   - Total nuclear charge
  QA   - Mulliken gross atomic charge
  VA   - Mayer's total valence
  BVA  - Mayer's bonded valence
  FA   - Mayer's free valence

  ATOM       NA         ZA         QA         VA         BVA        FA
  0 C      5.8117     6.0000     0.1883     3.9122     3.9122    -0.0000
  1 O      8.2889     8.0000    -0.2889     2.2083     2.2083     0.0000
  2 H      0.9698     1.0000     0.0302     0.9960     0.9960     0.0000
  3 H      0.9698     1.0000     0.0302     0.9958     0.9958    -0.0000
  4 H      0.9657     1.0000     0.0343     0.9892     0.9892    -0.0000
  5 C      5.7146     6.0000     0.2854     4.4588     4.4588    -0.0000
  6 O      8.2890     8.0000    -0.2890     2.2083     2.2083     0.0000
  7 C      5.8115     6.0000     0.1885     3.9123     3.9123    -0.0000
  8 H      0.9699     1.0000     0.0301     0.9960     0.9960    -0.0000
  9 H      0.9699     1.0000     0.0301     0.9959     0.9959    -0.0000
 10 H      0.9659     1.0000     0.0341     0.9892     0.9892    -0.0000
 11 O      8.2733     8.0000    -0.2733     2.2032     2.2032    -0.0000

  Mayer bond orders larger than 0.100000
B(  0-C ,  1-O ) :   0.9295 B(  0-C ,  2-H ) :   0.9742 B(  0-C ,  3-H ) :   0.9742 
B(  0-C ,  4-H ) :   0.9800 B(  1-O ,  5-C ) :   1.1912 B(  5-C ,  6-O ) :   1.1911 
B(  5-C , 11-O ) :   1.9858 B(  6-O ,  7-C ) :   0.9296 B(  7-C ,  8-H ) :   0.9742 
B(  7-C ,  9-H ) :   0.9742 B(  7-C , 10-H ) :   0.9800 

-------
TIMINGS
-------

Total SCF time: 0 days 0 hours 0 min 6 sec 

Total time                  ....       6.205 sec
Sum of individual times     ....       6.189 sec  ( 99.7%)

SCF preparation             ....       0.029 sec  (  0.5%)
Fock matrix formation       ....       6.131 sec  ( 98.8%)
  Startup                   ....       0.001 sec  (  0.0% of F)
  Split-RI-J                ....       0.242 sec  (  3.9% of F)
  Chain of spheres X        ....       5.014 sec  ( 81.8% of F)
  XC integration            ....       0.869 sec  ( 14.2% of F)
    Basis function eval.    ....       0.395 sec  ( 45.4% of XC)
    Density eval.           ....       0.158 sec  ( 18.2% of XC)
    XC-Functional eval.     ....       0.057 sec  (  6.6% of XC)
    XC-Potential eval.      ....       0.211 sec  ( 24.3% of XC)
Diagonalization             ....       0.000 sec  (  0.0%)
Density matrix formation    ....       0.002 sec  (  0.0%)
Total Energy calculation    ....       0.005 sec  (  0.1%)
Population analysis         ....       0.014 sec  (  0.2%)
Orbital Transformation      ....       0.001 sec  (  0.0%)
Orbital Orthonormalization  ....       0.000 sec  (  0.0%)
DIIS solution               ....       0.001 sec  (  0.0%)
SOSCF solution              ....       0.005 sec  (  0.1%)
Finished LeanSCF after   6.2 sec

Maximum memory used throughout the entire LEANSCF-calculation: 13.1 MB


-------------------------------------------------------------------------------
                          DFT DISPERSION CORRECTION                            
                                                                               
                              DFTD3 V3.1  Rev 1                                
                          USING Becke-Johnson damping                          
-------------------------------------------------------------------------------
The B3LYP functional is recognized
Active option DFTDOPT                   ...         4   

molecular C6(AA) [au] = 1150.727111 


            DFT-D V3
 parameters
 s6 scaling factor         :     1.0000 
 a1 scaling factor         :     0.3981 
 s8 scaling factor         :     1.9889 
 a2 scaling factor         :     4.4211 
 ad hoc parameters k1-k3   :    16.0000     1.3333    -4.0000 

 Edisp/kcal,au: -7.729868397407  -0.012318328077 
 E6   /kcal   :  -3.786728188 
 E8   /kcal   :  -3.943140210 
 % E8         :  51.011737935 

-------------------------   ----------------
Dispersion correction           -0.012318328
-------------------------   ----------------


-------------------------   --------------------
FINAL SINGLE POINT ENERGY      -343.188477609013
-------------------------   --------------------

                                *** OPTIMIZATION RUN DONE ***


------------------------------------------------------------------------------
                              ORCA PROPERTY CALCULATIONS
------------------------------------------------------------------------------

GBWName                                 ... DMC.gbw
Number of atoms                         ...     12
Number of basis functions               ...    114
Max core memory                         ...   1024 MB

Electric properties:
Dipole moment                           ... YES
Quadrupole moment                       ...  NO
Static polarizability (Dipole/Dipole)   ...  NO
Static polarizability (Dipole/Quad.)    ...  NO
Static polarizability (Quad./Quad.)     ...  NO
Static polarizability (Velocity)        ...  NO

Atomic electric properties:
Dipole moment                           ...  NO
Quadrupole moment                       ...  NO
Static polarizability                   ...  NO

Choice of electric origin               ... Center of mass
Position of electric origin             ...    -3.428666     2.813549    -0.045361

General magnetic properties:
Magnetizability                         ...  NO

EPR properties:
g-Tensor (aka g-matrix)                 ...  NO
Zero-Field splitting spin-orbit         ...  NO
Zero-field splitting spin-spin          ...  NO
Hyperfine couplings                     ...  NO (   0 nuclei)
Quadrupole couplings                    ...  NO (   0 nuclei)
Contact density                         ...  NO (   0 nuclei)

NMR properties:
Chemical shifts                         ...  NO (   0 nuclei)
Spin-rotation constants                 ...  NO (   0 nuclei)
Spin-spin couplings                     ...  NO (   0 nuclei,    0 pairs)

Choice of magnetic origin               ... GIAO
Position of magnetic origin             ...     0.000000     0.000000     0.000000

Properties with geometric perturbations:
SCF Hessian                             ...  NO
IR spectrum                             ...  NO
VCD spectrum                            ...  NO
X-ray spectroscopy properties:
SCF XES/XAS/RIXS spectra                ...  NO


-------------
DIPOLE MOMENT
-------------

Method             : SCF
Type of density    : Electron Density
Multiplicity       :   1
Irrep              :   0
Energy             :  -343.1761592809365879 Eh
Relativity type    : 
Basis              : AO
                                X                 Y                 Z
Electronic contribution:      0.088978923      -0.955041159      -0.247406660
Nuclear contribution   :     -0.077949035       0.833849685       0.216186816
                        -----------------------------------------
Total Dipole Moment    :      0.011029888      -0.121191474      -0.031219844
                        -----------------------------------------
Magnitude (a.u.)       :      0.125633238
Magnitude (Debye)      :      0.319334313



--------------------
Rotational spectrum 
--------------------
 
Rotational constants in cm-1:             0.348816             0.078497             0.065684 
Rotational constants in MHz :         10457.252671          2353.279987          1969.158412 

Dipole components along the rotational axes: 
x,y,z [a.u.] :    -0.000244    -0.125633    -0.000025 
x,y,z [Debye]:    -0.000619    -0.319334    -0.000064 

 

Dipole moment calculation done in   0.0 sec 

Maximum memory used throughout the entire PROP-calculation: 7.1 MB

--------------------------------
SUGGESTED CITATIONS FOR THIS RUN
--------------------------------

Below you find a list of papers that are relevant to this ORCA run
We neither can nor want to force you to cite these papers, but we appreciate if you do
You receive ORCA, which is the product of decades of hard work by many enthusiastic individuals, for free
The only thing we kindly ask in return is that you cite our papers,
We deeply appreciate it, if you show your appreciation for ORCA by not just citing the generic ORCA reference.

Please note that relegating all ORCA citations to the supporting information does *not* help us.
SI sections are not indexed - citations you put there will not count into any citation statistics
But we need these citations in order to attract the funding resources that allow us to do what we are doing

Therefore, if you are a happy ORCA user, please consider citing a few of the papers listed below in the main body of your paper

In addition to the list printed below, the program has created the file DMC.bibtex that contains the list in bibtex format
You can import this file easily into all common literature databanks and citation aid programs


List of essential papers. We consider these as the minimum necessary citations

  1. Neese,F.
     Software update: the ORCA program system, version 5.0
     WIRES Comput. Molec. Sci., 2022 12(1)e1606
     doi.org/10.1002/wcms.1606

List of papers to cite with high priority. The work reported in these papers was absolutely
necessary for this run to complete.
Our perspective: the developers of density functionals and basis sets usually get cited in chemistry papers
Good! But without the algorithms to do something with them, the functionals or basis sets would not do anything.
Hence, in our opinion, the algorithm design and method developments papers are equally worthy of getting cited

  1. Neese,F.
     An improvement of the resolution of the identity approximation for the formation of the Coulomb matrix
     J. Comp. Chem., 2003 24(14)1740-1747
     doi.org/10.1002/jcc.10318
  2. Neese,F.; Wennmohs,F.; Hansen,A.; Becker,U.
     Efficient, approximate and parallel Hartree-Fock and hybrid DFT calculations. A 'chain-of-spheres' algorithm for the Hartree-Fock exchange
     Chem. Phys., 2009 356(1-3)98-109
     doi.org/10.1016/j.chemphys.2008.10.036
  3. Helmich-Paris,B.; de Souza,B.; Neese,F.; Izsák,R.
     An improved chain of spheres for exchange algorithm
     J. Chem. Phys., 2021 155 104109
     doi.org/doi: 10.1063/5.0058766.
  4. Neese,F.
     The SHARK Integral Generation and Digestion System
     J. Comp. Chem., 2022  1-16
     doi.org/10.1002/jcc.26942
  5. Grimme,S.; Antony,J.; Ehrlich,S.; Krieg,H.
     A consistent and accurate ab initio parametrization of density functional dispersion correction (DFT-D) for the 94 elements H-Pu
     J. Chem. Phys., 2010 132 154104
     doi.org/10.1063/1.3382344
  6. Grimme,S.; Ehrlich,S.; Goerigk,L.
     Effect of the damping function in dispersion corrected density functional theory
     J. Comput. Chem., 2011 32(7)1456-1465
     doi.org/10.1002/jcc.21759

List of suggested additional citations. These are papers that are important in the 'surrounding' of 
of this run, or papers that preceded the highly important papers. If you like your results we are grateful for a citation.

  1. Izsak,R.; Neese,F.
     An overlap fitted chain of spheres exchange method
     J. Chem. Phys., 2011 135 144105
     doi.org/10.1063/1.3646921
  2. Izsak,R.; Hansen,A.; Neese,F.
     The resolution of identity and chain of spheres approximations for the LPNO-CCSD singles Fock term
     Molec. Phys., 2012 110 2413-2417
     doi.org/10.1080/00268976.2012.687466
  3. Neese,F.
     The ORCA program system
     WIRES Comput. Molec. Sci., 2012 2(1)73-78
     doi.org/10.1002/wcms.81
  4. Izsak,R.; Neese,F.; Klopper,W.
     Robust fitting techniques in the chain of spheres approximation to the Fock exchange: The role of the complementary space
     J. Chem. Phys., 2013 139 
     doi.org/10.1063/1.4819264
  5. Neese,F.
     Software update: the ORCA program system, version 4.0
     WIRES Comput. Molec. Sci., 2018 8(1)1-6
     doi.org/10.1002/wcms.1327
  6. Neese,F.; Wennmohs,F.; Becker,U.; Riplinger,C.
     The ORCA quantum chemistry program package
     J. Chem. Phys., 2020 152 Art. No. L224108
     doi.org/10.1063/5.0004608

List of optional additional citations

  1. Neese,F.
     Approximate second-order SCF convergence for spin unrestricted wavefunctions
     Chem. Phys. Lett., 2000 325(1-3)93-98
     doi.org/10.1016/s0009-2614(00)00662-x

Timings for individual modules:

Sum of individual times          ...      147.114 sec (=   2.452 min)
Startup calculation              ...        5.121 sec (=   0.085 min)   3.5 %
SCF iterations                   ...       79.223 sec (=   1.320 min)  53.9 %
Property calculations            ...        0.112 sec (=   0.002 min)   0.1 %
SCF Gradient evaluation          ...       62.611 sec (=   1.044 min)  42.6 %
Geometry relaxation              ...        0.047 sec (=   0.001 min)   0.0 %
                             ****ORCA TERMINATED NORMALLY****
TOTAL RUN TIME: 0 days 0 hours 2 minutes 27 seconds 883 msec
