
                                 *****************
                                 * O   R   C   A *
                                 *****************

                                            #,                                       
                                            ###                                      
                                            ####                                     
                                            #####                                    
                                            ######                                   
                                           ########,                                 
                                     ,,################,,,,,                         
                               ,,#################################,,                 
                          ,,##########################################,,             
                       ,#########################################, ''#####,          
                    ,#############################################,,   '####,        
                  ,##################################################,,,,####,       
                ,###########''''           ''''###############################       
              ,#####''   ,,,,##########,,,,          '''####'''          '####       
            ,##' ,,,,###########################,,,                        '##       
           ' ,,###''''                  '''############,,,                           
         ,,##''                                '''############,,,,        ,,,,,,###''
      ,#''                                            '''#######################'''  
     '                                                          ''''####''''         
             ,#######,   #######,   ,#######,      ##                                
            ,#'     '#,  ##    ##  ,#'     '#,    #''#        ,####,   ,####,        
            ##       ##  ##   ,#'  ##            #'  '#       #'       #'  '#        
            ##       ##  #######   ##           ,######,      #####,   #    #        
            '#,     ,#'  ##    ##  '#,     ,#' ,#      #,     #,   #   #,  ,#        
             '#######'   ##     ##  '#######'  #'      '#     '####' # '####'        



                #########################################################
                #                        -***-                          #
                #          Department of theory and spectroscopy        #
                #                                                       #
                #                      Frank Neese                      #
                #                                                       #
                #     Directorship, Architecture, Infrastructure        #
                #                    SHARK, DRIVERS                     #
                #        Core code/Algorithms in most modules           #
                #                                                       #
                #        Max Planck Institute fuer Kohlenforschung      #
                #                Kaiser Wilhelm Platz 1                 #
                #                 D-45470 Muelheim/Ruhr                 #
                #                      Germany                          #
                #                                                       #
                #                  All rights reserved                  #
                #                        -***-                          #
                #########################################################


                         Program Version 6.0.1  -  RELEASE   -


 With contributions from (in alphabetic order):
[Max-Planck-Institut fuer Kohlenforschung]                               
  Daniel Aravena         : Magnetic Suceptibility                        
  Michael Atanasov       : Ab Initio Ligand Field Theory (pilot matlab implementation)
  Alexander A. Auer      : GIAO ZORA, VPT2 properties, NMR spectrum      
  Ute Becker             : All parallelization in ORCA, NUMFREQ, NUMCALC 
  Giovanni Bistoni       : ED, misc. LED, open-shell LED, HFLD           
  Martin Brehm           : Molecular dynamics                            
  Dmytro Bykov           : pre 5.0 version of the SCF Hessian            
  Marcos Casanova-Páez   : Triplet and SCS-CIS(D). UHF-(DLPNO)-IP/EA/STEOM-CCSD. UHF-CVS-IP/STEOM-CCSD   
  Vijay G. Chilkuri      : MRCI spin determinant printing, contributions to CSF-ICE 
  Pauline Colinet        : FMM embedding                                 
  Dipayan Datta          : RHF DLPNO-CCSD density                        
  Achintya Kumar Dutta   : EOM-CC, STEOM-CC                              
  Nicolas Foglia         : Exact transition moments, OPA infrastructure, MCD improvements    
  Dmitry Ganyushin       : Spin-Orbit,Spin-Spin,Magnetic field MRCI      
  Miquel Garcia-Rates    : C-PCM and meta-GGA Hessian, CCSD/C-PCM, Gaussian charge scheme 
  Tiago L. C. Gouveia    : GS-ROHF, GS-ROCIS                             
  Yang Guo               : DLPNO-NEVPT2, F12-NEVPT2, CIM, IAO-localization        
  Andreas Hansen         : Spin unrestricted coupled pair/coupled cluster methods 
  Ingolf Harden          : AUTO-CI MPn and infrastructure                
  Benjamin Helmich-Paris : MC-RPA, TRAH-(SCF,CASSCF), AVAS, COSX integrals, SCF dyn. polar. 
  Lee Huntington         : MR-EOM, pCC                                   
  Robert Izsak           : Overlap fitted RIJCOSX, COSX-SCS-MP3, EOM     
  Riya Kayal             : Wick's Theorem for AUTO-CI, AUTO-CI UHF-CCSDT 
  Emily Kempfer          : AUTO-CI, RHF CISDT and CCSDT                  
  Christian Kollmar      : KDIIS, OOCD, Brueckner-CCSD(T), CCSD density, CASPT2, CASPT2-K, improved NEVPT2 
  Axel Koslowski         : Symmetry handling                             
  Simone Kossmann        : meta-GGA functionals, TD-DFT gradient, OOMP2, (MP2 Hessian; deprecated post 5.0) 
  Lucas Lang             : DCDCAS                                        
  Marvin Lechner         : AUTO-CI (C++ implementation), FIC-MRCC        
  Spencer Leger          : CASSCF response                               
  Dagmar Lenk            : GEPOL surface, SMD, ORCA-2-JSON               
  Dimitrios Liakos       : Extrapolation schemes; Compound Job, initial MDCI parallelization 
  Dimitrios Manganas     : Further ROCIS development; embedding schemes. LFT, Crystal Embedding 
  Dimitrios Pantazis     : SARC Basis sets                               
  Anastasios Papadopoulos: AUTO-CI, single reference methods and gradients 
  Taras Petrenko         : pre 6.0 DFT Hessian and TD-DFT gradient, (ASA, deprecated), ECA, 1-Electron XAS/XES, NRVS 
  Peter Pinski           : DLPNO-MP2, DLPNO-MP2 Gradient                 
  Christoph Reimann      : Effective Core Potentials                     
  Marius Retegan         : Local ZFS, SOC                                
  Christoph Riplinger    : Optimizer, TS searches, QM/MM, DLPNO-CCSD(T), (RO)-DLPNO pert. Triples 
  Michael Roemelt        : Original ROCIS implementation                 
  Masaaki Saitow         : Open-shell DLPNO-CCSD energy and density      
  Barbara Sandhoefer     : DKH picture change effects                    
  Kantharuban Sivalingam : CASSCF convergence/infrastructure, NEVPT2 and variants, FIC-MRCI 
  Bernardo de Souza      : ESD, SOC TD-DFT                               
  Georgi L. Stoychev     : AutoAux, RI-MP2 NMR, DLPNO-MP2 response, X2C  
  Van Anh Tran           : RI-MP2 g-tensors                              
  Willem Van den Heuvel  : Paramagnetic NMR                              
  Zikuan Wang            : NOTCH, Electric field optimization            
  Frank Wennmohs         : Technical directorship and infrastructure     
  Hang Xu                : AUTO-CI-Response properties                   
                                                                         
[FACCTs GmbH]                                                            
  Markus Bursch, Miquel Garcia-Rates, Christoph Riplinger, Bernardo de Souza, Georgi L. Stoychev 
                                                                 
  APM, Basis sets (HGBS, AHGBS, def-TZVP (Ac-Lr), def2-XVPD (La-Lu)), CI-OPT, improved COSX, DLPNO-Multilevel,           
  DOCKER, DRACO, updates on ESD, GOAT, IRC, LR-CPCM, MBIS, meta-GGA TD-DFT gradient, ML-optimized integration grids, 
  MM, NACMEs, nearIR, NEB, NEB-TS, NL-DFT gradient (VV10), 2- and 3-layer-ONIOM, interface openCOSMO-RS, QMMM,   
  Crystal-QMMM, SF, symmetry and pop. for TD-DFT, r2SCAN hybrids, SOLVATOR                                   
                                                                         
[Other institutions]                                                     
  V. Asgeirsson          : NEB                                           
  Christoph Bannwarth    : sTDA-DFT, sTD-DFT, PBEh-3c, B97-3c, D3        
  Sebastian Ehlert       : rSCAN, r2SCAN, r2SCAN-3c, D4, dhf basis sets  
  Marvin Friede          : D4 for Fr, Ra, Ac-Lr                          
  Lars Goerigk           : TD-DFT with DH, B97 family of functionals     
  Stefan Grimme          : VdW corrections, initial TS optimization, DFT functionals, gCP, sTDA/sTD-DF 
  Waldemar Hujo          : DFT-NL                                        
  H. Jonsson             : NEB                                           
  Holger Kruse           : gCP                                           
  Marcel Mueller         : wB97X-3c, vDZP basis set                      
  Hagen Neugebauer       : wr2SCAN                                       
  Tobias Risthaus        : range-separated hybrid DFT                    
  Lukas Wittmann         : regularized MP2, r2SCAN double-hybrids, wr2SCAN        
                                                                         
We gratefully acknowledge several colleagues who have allowed us to      
interface, adapt or use parts of their codes:                            
  Ed Valeev, F. Pavosevic, A. Kumar             : LibInt (2-el integral package), F12 methods 
  Garnet Chan, S. Sharma, J. Yang, R. Olivares  : DMRG                   
  Ulf Ekstrom                                   : XCFun DFT Library      
  Mihaly Kallay                                 : mrcc  (arbitrary order and MRCC methods)
  Frank Weinhold                                : gennbo (NPA and NBO analysis)           
  Simon Mueller                                 : openCOSMO-RS                            
  Christopher J. Cramer and Donald G. Truhlar   : smd solvation model                     
  S Lehtola, MJT Oliveira, MAL Marques          : LibXC Library                           
  Liviu Ungur et al                             : ANISO software                          


 Your calculation uses the libint2 library for the computation of 2-el integrals
 For citations please refer to: http://libint.valeyev.net

 Your ORCA version has been built with support for libXC version: 6.2.2
 For citations please refer to: https://libxc.gitlab.io

 This ORCA versions uses:
   CBLAS   interface :  Fast vector & matrix operations
   LAPACKE interface :  Fast linear algebra routines
   SCALAPACK package :  Parallel linear algebra routines
   Shared memory     :  Shared parallel matrices


Your calculation utilizes the atom-pairwise dispersion correction
with the Becke-Johnson damping scheme (D3BJ)


Warning: RI is on but no J-basis has been assigned. Assigning Def2/J (nothing to worry about!)
================================================================================

----- Orbital basis set information -----
Your calculation utilizes the basis: def2-SVP
   F. Weigend and R. Ahlrichs, Phys. Chem. Chem. Phys. 7, 3297 (2005).

----- AuxJ basis set information -----
Your calculation utilizes the auxiliary basis: def2/J
   F. Weigend, Phys. Chem. Chem. Phys. 8, 1057 (2006).

================================================================================
                                        WARNINGS
                       Please study these warnings very carefully!
================================================================================


WARNING: Geometry Optimization
  ===> : Switching off AutoStart
         For restart on a previous wavefunction, please use MOREAD

================================================================================
                                       INPUT FILE
================================================================================
NAME = ec.inp
|  1> # avogadro generated ORCA input file 
|  2> # Basic Mode
|  3> # 
|  4> ! B3LYP D3BJ def2-SVP TightSCF Opt
|  5> 
|  6> * xyz 0 1
|  7>    C       -7.81403        2.54838        0.00798
|  8>    C       -6.32558        2.42920        0.05509
|  9>    O       -8.24785        1.25604        0.38736
| 10>    H       -8.18540        2.76082       -1.00022
| 11>    H       -8.19528        3.30702        0.69682
| 12>    O       -6.10500        1.07367       -0.28578
| 13>    H       -5.92266        2.60853        1.05758
| 14>    H       -5.82947        3.09684       -0.65451
| 15>    C       -7.23849        0.39422        0.06200
| 16>    O       -7.33631       -0.82045        0.07967
| 17> *
| 18> 
| 19> 
| 20>                          ****END OF INPUT****
================================================================================

                       *****************************
                       * Geometry Optimization Run *
                       *****************************

Geometry optimization settings:
Update method            Update   .... BFGS
Choice of coordinates    CoordSys .... (2022) Redundant Internals
Initial Hessian          InHess   .... Almloef's Model
Max. no of cycles        MaxIter  .... 50

Convergence Tolerances:
Energy Change            TolE     ....  5.0000e-06 Eh
Max. Gradient            TolMAXG  ....  3.0000e-04 Eh/bohr
RMS Gradient             TolRMSG  ....  1.0000e-04 Eh/bohr
Max. Displacement        TolMAXD  ....  4.0000e-03 bohr
RMS Displacement         TolRMSD  ....  2.0000e-03 bohr
Strict Convergence                .... False

------------------------------------------------------------------------------
                        ORCA OPTIMIZATION COORDINATE SETUP
------------------------------------------------------------------------------

The optimization will be done in redundant internal coordinates (2022)
Making redundant internal coordinates   ...  (2022 redundants) done
Evaluating the initial hessian          ...  (Almloef) done
Evaluating the coordinates              ...  done
Calculating the B-matrix                .... done
Calculating the G-matrix                .... done
Diagonalizing the G-matrix              .... done
The first mode is                       ....   19
The number of degrees of freedom        ....   24

    -----------------------------------------------------------------
                    Redundant Internal Coordinates


    -----------------------------------------------------------------
         Definition                    Initial Value    Approx d2E/dq
    -----------------------------------------------------------------
      1. B(C   1,C   0)                  1.4940         0.426464   
      2. B(O   2,C   0)                  1.4150         0.510462   
      3. B(H   3,C   0)                  1.0952         0.353256   
      4. B(H   4,C   0)                  1.0933         0.355712   
      5. B(O   5,C   1)                  1.4150         0.510437   
      6. B(H   6,C   1)                  1.0952         0.353270   
      7. B(H   7,C   1)                  1.0933         0.355704   
      8. B(C   8,O   5)                  1.3665         0.609988   
      9. B(C   8,O   2)                  1.3665         0.609990   
     10. B(O   9,C   8)                  1.2187         1.049844   
     11. A(O   2,C   0,H   4)          110.9709         0.338776   
     12. A(C   1,C   0,O   2)          102.9523         0.389900   
     13. A(H   3,C   0,H   4)          109.0955         0.289408   
     14. A(C   1,C   0,H   3)          112.4783         0.330427   
     15. A(O   2,C   0,H   3)          108.6631         0.338385   
     16. A(C   1,C   0,H   4)          112.5137         0.330806   
     17. A(C   0,C   1,O   5)          102.9519         0.389897   
     18. A(H   6,C   1,H   7)          109.0960         0.289409   
     19. A(O   5,C   1,H   7)          110.9705         0.338772   
     20. A(C   0,C   1,H   7)          112.5136         0.330805   
     21. A(O   5,C   1,H   6)          108.6632         0.338384   
     22. A(C   0,C   1,H   6)          112.4786         0.330429   
     23. A(C   0,O   2,C   8)          106.6008         0.412606   
     24. A(C   1,O   5,C   8)          106.6004         0.412602   
     25. A(O   2,C   8,O   5)          111.0813         0.425919   
     26. A(O   5,C   8,O   9)          124.4591         0.469975   
     27. A(O   2,C   8,O   9)          124.4596         0.469975   
     28. D(O   5,C   1,C   0,H   4)    150.6862         0.014381   
     29. D(O   5,C   1,C   0,H   3)    -85.6199         0.014381   
     30. D(H   6,C   1,C   0,H   3)    157.6031         0.014381   
     31. D(H   6,C   1,C   0,H   4)     33.9092         0.014381   
     32. D(H   6,C   1,C   0,O   2)    -85.6199         0.014381   
     33. D(O   5,C   1,C   0,O   2)     31.1571         0.014381   
     34. D(C   8,O   2,C   0,C   1)    -25.5298         0.020629   
     35. D(C   8,O   2,C   0,H   4)   -146.1219         0.020629   
     36. D(C   8,O   2,C   0,H   3)     93.9274         0.020629   
     37. D(C   8,O   5,C   1,H   7)   -146.1212         0.020627   
     38. D(C   8,O   5,C   1,H   6)     93.9277         0.020627   
     39. D(C   8,O   5,C   1,C   0)    -25.5296         0.020627   
     40. D(O   2,C   8,O   5,C   1)     10.4315         0.027236   
     41. D(O   9,C   8,O   2,C   0)   -169.5687         0.027236   
     42. D(O   5,C   8,O   2,C   0)     10.4315         0.027236   
     43. D(O   9,C   8,O   5,C   1)   -169.5684         0.027236   
    -----------------------------------------------------------------

Number of atoms                         .... 10
Number of degrees of freedom            .... 43


         *************************************************************
         *                GEOMETRY OPTIMIZATION CYCLE   1            *
         *************************************************************
---------------------------------
CARTESIAN COORDINATES (ANGSTROEM)
---------------------------------
  C     -7.814030    2.548380    0.007980
  C     -6.325580    2.429200    0.055090
  O     -8.247850    1.256040    0.387360
  H     -8.185400    2.760820   -1.000220
  H     -8.195280    3.307020    0.696820
  O     -6.105000    1.073670   -0.285780
  H     -5.922660    2.608530    1.057580
  H     -5.829470    3.096840   -0.654510
  C     -7.238490    0.394220    0.062000
  O     -7.336310   -0.820450    0.079670

----------------------------
CARTESIAN COORDINATES (A.U.)
----------------------------
  NO LB      ZA    FRAG     MASS         X           Y           Z
   0 C     6.0000    0    12.011  -14.766377    4.815740    0.015080
   1 C     6.0000    0    12.011  -11.953614    4.590523    0.104105
   2 O     8.0000    0    15.999  -15.586178    2.373572    0.732004
   3 H     1.0000    0     1.008  -15.468164    5.217194   -1.890142
   4 H     1.0000    0     1.008  -15.486835    6.249362    1.316799
   5 O     8.0000    0    15.999  -11.536778    2.028942   -0.540046
   6 H     1.0000    0     1.008  -11.192205    4.929407    1.998537
   7 H     1.0000    0     1.008  -11.016102    5.852179   -1.236845
   8 C     6.0000    0    12.011  -13.678764    0.744968    0.117163
   9 O     8.0000    0    15.999  -13.863617   -1.550426    0.150554

--------------------------------
INTERNAL COORDINATES (ANGSTROEM)
--------------------------------
 C      0   0   0     0.000000000000     0.00000000     0.00000000
 C      1   0   0     1.493956701849     0.00000000     0.00000000
 O      1   2   0     1.415016484851   102.95230436     0.00000000
 H      1   2   3     1.095223114484   112.47831609   243.22296250
 H      1   2   3     1.093337439997   112.51368303   119.52904811
 O      2   1   3     1.415029849226   102.95190944    31.15713301
 H      2   1   3     1.095212296954   112.47856733   274.38010650
 H      2   1   3     1.093343707029   112.51359676   150.68540335
 C      3   1   2     1.366528613531   106.60075787   334.47024409
 O      9   3   1     1.218730565055   124.45960693   190.43132327

---------------------------
INTERNAL COORDINATES (A.U.)
---------------------------
 C      0   0   0     0.000000000000     0.00000000     0.00000000
 C      1   0   0     2.823169022431     0.00000000     0.00000000
 O      1   2   0     2.673993631352   102.95230436     0.00000000
 H      1   2   3     2.069671741915   112.47831609   243.22296250
 H      1   2   3     2.066108333558   112.51368303   119.52904811
 O      2   1   3     2.674018886361   102.95190944    31.15713301
 H      2   1   3     2.069651299747   112.47856733   274.38010650
 H      2   1   3     2.066120176531   112.51359676   150.68540335
 C      3   1   2     2.582364833741   106.60075787   334.47024409
 O      9   3   1     2.303066998994   124.45960693   190.43132327

---------------------
BASIS SET INFORMATION
---------------------
There are 3 groups of distinct atoms

 Group   1 Type C   : 7s4p1d contracted to 3s2p1d pattern {511/31/1}
 Group   2 Type O   : 7s4p1d contracted to 3s2p1d pattern {511/31/1}
 Group   3 Type H   : 4s1p contracted to 2s1p pattern {31/1}

Atom   0C    basis set group =>   1
Atom   1C    basis set group =>   1
Atom   2O    basis set group =>   2
Atom   3H    basis set group =>   3
Atom   4H    basis set group =>   3
Atom   5O    basis set group =>   2
Atom   6H    basis set group =>   3
Atom   7H    basis set group =>   3
Atom   8C    basis set group =>   1
Atom   9O    basis set group =>   2
---------------------------------
AUXILIARY/J BASIS SET INFORMATION
---------------------------------
There are 3 groups of distinct atoms

 Group   1 Type C   : 12s5p4d2f1g contracted to 6s4p3d1f1g pattern {711111/2111/211/2/1}
 Group   2 Type O   : 12s5p4d2f1g contracted to 6s4p3d1f1g pattern {711111/2111/211/2/1}
 Group   3 Type H   : 5s2p1d contracted to 3s1p1d pattern {311/2/1}

Atom   0C    basis set group =>   1
Atom   1C    basis set group =>   1
Atom   2O    basis set group =>   2
Atom   3H    basis set group =>   3
Atom   4H    basis set group =>   3
Atom   5O    basis set group =>   2
Atom   6H    basis set group =>   3
Atom   7H    basis set group =>   3
Atom   8C    basis set group =>   1
Atom   9O    basis set group =>   2
------------------------------------------------------------------------------
                             ORCA STARTUP CALCULATIONS
                           -- RI-GTO INTEGRALS CHOSEN --
------------------------------------------------------------------------------
------------------------------------------------------------------------------
                   ___                                                        
                  /   \      - P O W E R E D   B Y -                         
                 /     \                                                     
                 |  |  |   _    _      __       _____    __    __             
                 |  |  |  | |  | |    /  \     |  _  \  |  |  /  |          
                  \  \/   | |  | |   /    \    | | | |  |  | /  /          
                 / \  \   | |__| |  /  /\  \   | |_| |  |  |/  /          
                |  |  |   |  __  | /  /__\  \  |    /   |      \           
                |  |  |   | |  | | |   __   |  |    \   |  |\   \          
                \     /   | |  | | |  |  |  |  | |\  \  |  | \   \       
                 \___/    |_|  |_| |__|  |__|  |_| \__\ |__|  \__/        
                                                                              
                      - O R C A' S   B I G   F R I E N D -                    
                                      &                                       
                       - I N T E G R A L  F E E D E R -                       
                                                                              
 v1 FN, 2020, v2 2021, v3 2022-2024                                           
------------------------------------------------------------------------------


----------------------
SHARK INTEGRAL PACKAGE
----------------------

Number of atoms                             ...     10
Number of basis functions                   ...    104
Number of shells                            ...     48
Maximum angular momentum                    ...      2
Integral batch strategy                     ... SHARK/LIBINT Hybrid
RI-J (if used) integral strategy            ... SPLIT-RIJ (Revised 2003 algorithm where possible)
Printlevel                                  ...      1
Contraction scheme used                     ... SEGMENTED contraction
Prescreening option                         ... SCHWARTZ
   Thresh                                   ... 2.500e-11
   Tcut                                     ... 2.500e-12
   Tpresel                                  ... 2.500e-12 
Coulomb Range Separation                    ... NOT USED
Exchange Range Separation                   ... NOT USED
Multipole approximations                    ... NOT USED
Finite Nucleus Model                        ... NOT USED
CABS basis                                  ... NOT available
Auxiliary Coulomb fitting basis             ... AVAILABLE
   # of basis functions in Aux-J            ...    338
   # of shells in Aux-J                     ...    110
   Maximum angular momentum in Aux-J        ...      4
Auxiliary J/K fitting basis                 ... NOT available
Auxiliary Correlation fitting basis         ... NOT available
Auxiliary 'external' fitting basis          ... NOT available

Checking pre-screening integrals            ... done (  0.0 sec) Dimension = 48
Check shell pair data                       ... done (  0.0 sec)
Shell pair information
Shell pair cut-off parameter TPreSel        ...   2.5e-12
Total number of shell pairs                 ...      1176
Shell pairs after pre-screening             ...      1154
Total number of primitive shell pairs       ...      4368
Primitive shell pairs kept                  ...      3380
          la=0 lb=0:    338 shell pairs
          la=1 lb=0:    410 shell pairs
          la=1 lb=1:    136 shell pairs
          la=2 lb=0:    153 shell pairs
          la=2 lb=1:     96 shell pairs
          la=2 lb=2:     21 shell pairs

Calculating one electron integrals          ... done (  0.0 sec)
Calculating RI/J V-Matrix + Cholesky decomp.... done (  0.0 sec)
Calculating Nuclear repulsion               ... done (  0.0 sec) ENN=    246.926165993697 Eh

Diagonalization of the overlap matrix:
Smallest eigenvalue                        ... 2.616e-03
Time for diagonalization                   ...    0.001 sec
Threshold for overlap eigenvalues          ... 1.000e-07
Number of eigenvalues below threshold      ... 0
Time for construction of square roots      ...    0.000 sec
Total time needed                          ...    0.002 sec

-------------------
DFT GRID GENERATION
-------------------

General Integration Accuracy     IntAcc      ... 4.388
Radial Grid Type                 RadialGrid  ... OptM3 with GC (2021)
Angular Grid (max. ang.)         AngularGrid ... 4 (Lebedev-302)
Angular grid pruning method      GridPruning ... 4 (adaptive)
Weight generation scheme         WeightScheme... mBecke (2022)
Basis function cutoff            BFCut       ... 1.0000e-11
Integration weight cutoff        WCut        ... 1.0000e-14
Partially contracted basis set               ... off
Rotationally invariant grid construction     ... off
Angular grids for H and He will be reduced by one unit

Total number of grid points                  ...    49288
Total number of batches                      ...      774
Average number of points per batch           ...       63
Average number of grid points per atom       ...     4929

--------------------
COSX GRID GENERATION
--------------------

GRIDX 1
-------
General Integration Accuracy     IntAcc      ... 3.816
Radial Grid Type                 RadialGrid  ... OptM3 with GC (2021)
Angular Grid (max. ang.)         AngularGrid ... 1 (Lebedev-50)
Angular grid pruning method      GridPruning ... 4 (adaptive)
Weight generation scheme         WeightScheme... mBecke (2022)
Basis function cutoff            BFCut       ... 1.0000e-11
Integration weight cutoff        WCut        ... 1.0000e-14
Partially contracted basis set               ... on
Rotationally invariant grid construction     ... off
Angular grids for H and He will be reduced by one unit

Total number of grid points                  ...     6288
Total number of batches                      ...       56
Average number of points per batch           ...      112
Average number of grid points per atom       ...      629
UseSFitting                                  ... on

GRIDX 2
-------
General Integration Accuracy     IntAcc      ... 4.020
Radial Grid Type                 RadialGrid  ... OptM3 with GC (2021)
Angular Grid (max. ang.)         AngularGrid ... 2 (Lebedev-110)
Angular grid pruning method      GridPruning ... 4 (adaptive)
Weight generation scheme         WeightScheme... mBecke (2022)
Basis function cutoff            BFCut       ... 1.0000e-11
Integration weight cutoff        WCut        ... 1.0000e-14
Partially contracted basis set               ... on
Rotationally invariant grid construction     ... off
Angular grids for H and He will be reduced by one unit

Total number of grid points                  ...    14067
Total number of batches                      ...      116
Average number of points per batch           ...      121
Average number of grid points per atom       ...     1407
UseSFitting                                  ... on

GRIDX 3
-------
General Integration Accuracy     IntAcc      ... 4.338
Radial Grid Type                 RadialGrid  ... OptM3 with GC (2021)
Angular Grid (max. ang.)         AngularGrid ... 3 (Lebedev-194)
Angular grid pruning method      GridPruning ... 4 (adaptive)
Weight generation scheme         WeightScheme... mBecke (2022)
Basis function cutoff            BFCut       ... 1.0000e-11
Integration weight cutoff        WCut        ... 1.0000e-14
Partially contracted basis set               ... on
Rotationally invariant grid construction     ... off
Angular grids for H and He will be reduced by one unit

Total number of grid points                  ...    31068
Total number of batches                      ...      247
Average number of points per batch           ...      125
Average number of grid points per atom       ...     3107
UseSFitting                                  ... on
Initializing property integral containers    ... done (  0.0 sec)

SHARK setup successfully completed in   0.6 seconds

Maximum memory used throughout the entire STARTUP-calculation: 20.4 MB
-------------------------------------------------------------------------------
                                 ORCA GUESS
                   Start orbitals & Density for SCF / CASSCF
-------------------------------------------------------------------------------

------------
SCF SETTINGS
------------
Hamiltonian:
 Density Functional     Method          .... DFT(GTOs)
 Exchange Functional    Exchange        .... B88
   X-Alpha parameter    XAlpha          ....  0.666667
   Becke's b parameter  XBeta           ....  0.004200
 Correlation Functional Correlation     .... LYP
 LDA part of GGA corr.  LDAOpt          .... VWN-5
 Gradients option       PostSCFGGA      .... off
 Hybrid DFT is turned on
   Fraction HF Exchange ScalHFX         ....  0.200000
   Scaling of DF-GGA-X  ScalDFX         ....  0.720000
   Scaling of DF-GGA-C  ScalDFC         ....  0.810000
   Scaling of DF-LDA-C  ScalLDAC        ....  1.000000
   Perturbative correction              ....  0.000000
   NL short-range parameter             ....  4.800000
 RI-approximation to the Coulomb term is turned on
   Number of AuxJ basis functions       .... 338
   RIJ-COSX (HFX calculated with COS-X)).... on


General Settings:
 Integral files         IntName         .... ec
 Hartree-Fock type      HFTyp           .... RHF
 Total Charge           Charge          ....    0
 Multiplicity           Mult            ....    1
 Number of Electrons    NEL             ....   46
 Basis Dimension        Dim             ....  104
 Nuclear Repulsion      ENuc            ....    246.9261659937 Eh

Convergence Acceleration:
 AO-DIIS                CNVDIIS         .... on
   Start iteration      DIISMaxIt       ....    12
   Startup error        DIISStart       ....  0.200000
   # of expansion vecs  DIISMaxEq       ....     5
   Bias factor          DIISBfac        ....   1.050
   Max. coefficient     DIISMaxC        ....  10.000
 MO-DIIS                CNVKDIIS        .... off
 Trust-Rad. Augm. Hess. CNVTRAH         .... auto
   Auto Start mean grad. ratio tolernc. ....  1.125000
   Auto Start start iteration           ....    50
   Auto Start num. interpolation iter.  ....    10
   Max. Number of Micro iterations      ....    24
   Max. Number of Macro iterations      .... Maxiter - #DIIS iter
   Number of Davidson start vectors     ....     2
   Converg. threshold    (grad. norm)   ....   1.000e-05
   Grad. Scal. Fac. for Micro threshold ....   0.100
   Minimum threshold for Micro iter.    ....   1.000e-02
   NR start threshold (gradient norm)   ....   1.000e-04
   Initial trust radius                 ....   0.400
   Minimum AH scaling param. (alpha)    ....   1.000
   Maximum AH scaling param. (alpha)    .... 1000.000
   Quad. conv. algorithm                .... NR
   White noise on init. David. guess    .... on
   Maximum white noise                  ....   0.010
   Pseudo random numbers                .... off
   Inactive MOs                         .... canonical
   Orbital update algorithm             .... Taylor
   Preconditioner                       .... Diag
   Full preconditioner red. dimension   ....   250
 SOSCF                  CNVSOSCF        .... on
   Start iteration      SOSCFMaxIt      ....   150
   Startup grad/error   SOSCFStart      ....  0.003300
   Hessian update       SOSCFHessUp     .... L-BFGS
 Level Shifting         CNVShift        .... on
   Level shift para.    LevelShift      ....    0.2500
   Turn off err/grad.   ShiftErr        ....    0.0010
 Zerner damping         CNVZerner       .... off
 Static damping         CNVDamp         .... on
   Fraction old density DampFac         ....    0.7000
   Max. Damping (<1)    DampMax         ....    0.9800
   Min. Damping (>=0)   DampMin         ....    0.0000
   Turn off err/grad.   DampErr         ....    0.1000

SCF Procedure:
 Maximum # iterations   MaxIter         ....   125
 SCF integral mode      SCFMode         .... Direct
   Integral package                     .... SHARK and LIBINT hybrid scheme
 Reset frequency        DirectResetFreq ....    20
 Integral Threshold     Thresh          ....  2.500e-11 Eh
 Primitive CutOff       TCut            ....  2.500e-12 Eh

Convergence Tolerance:
 Convergence Check Mode ConvCheckMode   .... Total+1el-Energy
 Convergence forced     ConvForced      .... 0
 Energy Change          TolE            ....  1.000e-08 Eh
 1-El. energy change                    ....  1.000e-05 Eh
 Orbital Gradient       TolG            ....  1.000e-05
 Orbital Rotation angle TolX            ....  1.000e-05
 DIIS Error             TolErr          ....  5.000e-07

------------------------------
INITIAL GUESS: MODEL POTENTIAL
------------------------------
Loading Hartree-Fock densities                     ... done
Calculating cut-offs                               ... done
Initializing the effective Hamiltonian             ... done
Setting up the integral package (SHARK)            ... done
Starting the Coulomb interaction                   ... done (   0.0 sec)
Making the grid                                    ... done (   0.1 sec)
Mapping shells                                     ... done
Starting the XC term evaluation                    ... done (   0.1 sec)
  promolecular density results
     # of electrons  =     45.998605100
     EX              =    -41.232141750
     EC              =     -1.617016769
     EX+EC           =    -42.849158519
Transforming the Hamiltonian                       ... done (   0.0 sec)
Diagonalizing the Hamiltonian                      ... done (   0.0 sec)
Back transforming the eigenvectors                 ... done (   0.0 sec)
Now organizing SCF variables                       ... done
                      ------------------
                      INITIAL GUESS DONE (   0.2 sec)
                      ------------------
             **** ENERGY FILE WAS UPDATED (ec.en.tmp) ****
Finished Guess after   0.2 sec
Maximum memory used throughout the entire GUESS-calculation: 10.7 MB

-------------------------------------------------------------------------------------------
                                      ORCA LEAN-SCF
                              memory conserving SCF solver
-------------------------------------------------------------------------------------------

----------------------------------------D-I-I-S--------------------------------------------
Iteration    Energy (Eh)           Delta-E    RMSDP     MaxDP     DIISErr   Damp  Time(sec)
-------------------------------------------------------------------------------------------
               ***  Starting incremental Fock matrix formation  ***
    1    -341.7828686501441098     0.00e+00  5.00e-03  1.12e-01  2.84e-01  0.700   1.4
    2    -341.8749650676847978    -9.21e-02  2.80e-03  6.21e-02  1.00e-01  0.700   0.8
                               ***Turning on AO-DIIS***
    3    -341.9035800812557682    -2.86e-02  1.03e-03  1.33e-02  2.89e-02  0.700   0.7
    4    -341.9235983272943713    -2.00e-02  1.69e-03  2.53e-02  1.37e-02  0.000   0.7
    5    -341.9696726748840092    -4.61e-02  3.24e-04  5.40e-03  4.56e-03  0.000   0.7
                              *** Initializing SOSCF ***
---------------------------------------S-O-S-C-F--------------------------------------
Iteration    Energy (Eh)           Delta-E    RMSDP     MaxDP     MaxGrad    Time(sec)
--------------------------------------------------------------------------------------
    6    -341.9698144920785126    -1.42e-04  1.24e-04  1.67e-03  2.51e-03     0.7
               *** Restarting incremental Fock matrix formation ***
    7    -341.9698058098726960     8.68e-06  8.87e-05  1.59e-03  4.76e-04     1.4
    8    -341.9698000023291797     5.81e-06  5.47e-05  1.19e-03  1.06e-03     1.1
    9    -341.9698091003742775    -9.10e-06  2.12e-05  4.88e-04  1.31e-04     1.1
   10    -341.9698087571981659     3.43e-07  1.32e-05  3.03e-04  2.10e-04     1.0
   11    -341.9698092800211953    -5.23e-07  1.44e-06  1.95e-05  6.87e-06     1.0
   12    -341.9698092825670983    -2.55e-09  6.64e-07  1.06e-05  5.33e-06     0.9
                 **** Energy Check signals convergence ****

               *****************************************************
               *                     SUCCESS                       *
               *           SCF CONVERGED AFTER  12 CYCLES          *
               *****************************************************

Recomputing exchange energy using gridx3       ... done (    2.491 sec)
Old exchange energy                            :     -8.325375836 Eh
New exchange energy                            :     -8.325411623 Eh
Exchange energy change after final integration :     -0.000035787 Eh
Total energy after final integration           :   -341.969845069 Eh
             **** ENERGY FILE WAS UPDATED (ec.en.tmp) ****

----------------
TOTAL SCF ENERGY
----------------

Total Energy       :       -341.96984506927515 Eh           -9305.47257 eV

Components:
Nuclear Repulsion  :        246.92616599369731 Eh            6719.20257 eV
Electronic Energy  :       -588.89597527626438 Eh          -16024.67417 eV
One Electron Energy:       -955.96691121081119 Eh          -26013.18214 eV
Two Electron Energy:        367.07093593454675 Eh            9988.50797 eV

Virial components:
Potential Energy   :       -681.34847702875516 Eh          -18540.43464 eV
Kinetic Energy     :        339.37863195948000 Eh            9234.96207 eV
Virial Ratio       :          2.00763516870474

DFT components:
N(Alpha)           :       22.999997714520 electrons
N(Beta)            :       22.999997714520 electrons
N(Total)           :       45.999995429039 electrons
E(X)               :      -33.149460202783 Eh       
E(C)               :       -1.900974696136 Eh       
E(XC)              :      -35.050434898919 Eh       

---------------
SCF CONVERGENCE
---------------

  Last Energy change         ...    2.5459e-09  Tolerance :   1.0000e-08
  Last MAX-Density change    ...    1.0621e-05  Tolerance :   1.0000e-07
  Last RMS-Density change    ...    6.6385e-07  Tolerance :   5.0000e-09
  Last DIIS Error            ...    2.5069e-03  Tolerance :   5.0000e-07
  Last Orbital Gradient      ...    5.3250e-06  Tolerance :   1.0000e-05
  Last Orbital Rotation      ...    3.9035e-06  Tolerance :   1.0000e-05


----------------
ORBITAL ENERGIES
----------------

  NO   OCC          E(Eh)            E(eV) 
   0   2.0000     -19.196414      -522.3610 
   1   2.0000     -19.196292      -522.3577 
   2   2.0000     -19.121217      -520.3148 
   3   2.0000     -10.362896      -281.9887 
   4   2.0000     -10.270171      -279.4656 
   5   2.0000     -10.270018      -279.4614 
   6   2.0000      -1.157461       -31.4961 
   7   2.0000      -1.046353       -28.4727 
   8   2.0000      -1.017110       -27.6770 
   9   2.0000      -0.787917       -21.4403 
  10   2.0000      -0.680866       -18.5273 
  11   2.0000      -0.615482       -16.7481 
  12   2.0000      -0.560425       -15.2499 
  13   2.0000      -0.530204       -14.4276 
  14   2.0000      -0.507337       -13.8053 
  15   2.0000      -0.456409       -12.4195 
  16   2.0000      -0.438474       -11.9315 
  17   2.0000      -0.432598       -11.7716 
  18   2.0000      -0.391066       -10.6415 
  19   2.0000      -0.386412       -10.5148 
  20   2.0000      -0.320832        -8.7303 
  21   2.0000      -0.310236        -8.4419 
  22   2.0000      -0.291476        -7.9315 
  23   0.0000       0.019951         0.5429 
  24   0.0000       0.041807         1.1376 
  25   0.0000       0.072149         1.9633 
  26   0.0000       0.075260         2.0479 
  27   0.0000       0.094888         2.5820 
  28   0.0000       0.133545         3.6339 
  29   0.0000       0.154499         4.2041 
  30   0.0000       0.176676         4.8076 
  31   0.0000       0.228571         6.2197 
  32   0.0000       0.309722         8.4280 
  33   0.0000       0.353992         9.6326 
*Only the first 10 virtual orbitals were printed.

                    ********************************
                    * MULLIKEN POPULATION ANALYSIS *
                    ********************************

-----------------------
MULLIKEN ATOMIC CHARGES
-----------------------
   0 C :    0.183511
   1 C :    0.183874
   2 O :   -0.299061
   3 H :    0.029741
   4 H :    0.032812
   5 O :   -0.299128
   6 H :    0.029627
   7 H :    0.032753
   8 C :    0.306393
   9 O :   -0.200522
Sum of atomic charges:   -0.0000000

--------------------------------
MULLIKEN REDUCED ORBITAL CHARGES
--------------------------------
  0 C s       :     2.989642  s :     2.989642
      pz      :     1.012931  p :     2.764864
      px      :     0.965150
      py      :     0.786784
      dz2     :     0.011329  d :     0.061983
      dxz     :     0.006991
      dyz     :     0.014578
      dx2y2   :     0.017236
      dxy     :     0.011849

  1 C s       :     2.989369  s :     2.989369
      pz      :     1.017637  p :     2.764776
      px      :     0.995846
      py      :     0.751292
      dz2     :     0.011138  d :     0.061981
      dxz     :     0.007252
      dyz     :     0.014236
      dx2y2   :     0.018309
      dxy     :     0.011046

  2 O s       :     3.768041  s :     3.768041
      pz      :     1.729696  p :     4.512975
      px      :     1.563408
      py      :     1.219870
      dz2     :     0.002390  d :     0.018046
      dxz     :     0.003092
      dyz     :     0.002929
      dx2y2   :     0.003538
      dxy     :     0.006097

  3 H s       :     0.948866  s :     0.948866
      pz      :     0.013269  p :     0.021393
      px      :     0.005153
      py      :     0.002971

  4 H s       :     0.945255  s :     0.945255
      pz      :     0.008545  p :     0.021933
      px      :     0.005475
      py      :     0.007913

  5 O s       :     3.768083  s :     3.768083
      pz      :     1.731815  p :     4.512999
      px      :     1.516554
      py      :     1.264630
      dz2     :     0.002391  d :     0.018046
      dxz     :     0.003196
      dyz     :     0.002777
      dx2y2   :     0.005046
      dxy     :     0.004635

  6 H s       :     0.948978  s :     0.948978
      pz      :     0.013196  p :     0.021395
      px      :     0.005567
      py      :     0.002632

  7 H s       :     0.945311  s :     0.945311
      pz      :     0.008850  p :     0.021936
      px      :     0.006595
      py      :     0.006491

  8 C s       :     2.990958  s :     2.990958
      pz      :     0.849787  p :     2.538979
      px      :     0.823599
      py      :     0.865593
      dz2     :     0.011619  d :     0.163669
      dxz     :     0.015232
      dyz     :     0.034611
      dx2y2   :     0.036857
      dxy     :     0.065350

  9 O s       :     3.732578  s :     3.732578
      pz      :     1.443512  p :     4.449281
      px      :     1.711713
      py      :     1.294056
      dz2     :     0.002096  d :     0.018663
      dxz     :     0.000059
      dyz     :     0.005725
      dx2y2   :     0.006450
      dxy     :     0.004332



                     *******************************
                     * LOEWDIN POPULATION ANALYSIS *
                     *******************************

----------------------
LOEWDIN ATOMIC CHARGES
----------------------
   0 C :    0.077194
   1 C :    0.077234
   2 O :   -0.097516
   3 H :    0.021970
   4 H :    0.030251
   5 O :   -0.097535
   6 H :    0.021945
   7 H :    0.030254
   8 C :    0.108598
   9 O :   -0.172395

-------------------------------
LOEWDIN REDUCED ORBITAL CHARGES
-------------------------------
  0 C s       :     2.843537  s :     2.843537
      pz      :     1.063030  p :     2.937738
      px      :     1.018670
      py      :     0.856037
      dz2     :     0.026455  d :     0.141531
      dxz     :     0.014952
      dyz     :     0.033656
      dx2y2   :     0.041258
      dxy     :     0.025209

  1 C s       :     2.843521  s :     2.843521
      pz      :     1.067090  p :     2.937719
      px      :     1.040411
      py      :     0.830217
      dz2     :     0.025879  d :     0.141527
      dxz     :     0.016543
      dyz     :     0.032124
      dx2y2   :     0.043885
      dxy     :     0.023096

  2 O s       :     3.473894  s :     3.473894
      pz      :     1.720013  p :     4.590683
      px      :     1.594151
      py      :     1.276519
      dz2     :     0.003889  d :     0.032939
      dxz     :     0.003831
      dyz     :     0.005503
      dx2y2   :     0.006640
      dxy     :     0.013076

  3 H s       :     0.912093  s :     0.912093
      pz      :     0.039540  p :     0.065937
      px      :     0.015720
      py      :     0.010677

  4 H s       :     0.904425  s :     0.904425
      pz      :     0.024615  p :     0.065324
      px      :     0.016248
      py      :     0.024461

  5 O s       :     3.473904  s :     3.473904
      pz      :     1.721584  p :     4.590693
      px      :     1.554831
      py      :     1.314278
      dz2     :     0.003871  d :     0.032938
      dxz     :     0.004266
      dyz     :     0.005031
      dx2y2   :     0.009844
      dxy     :     0.009927

  6 H s       :     0.912118  s :     0.912118
      pz      :     0.039248  p :     0.065937
      px      :     0.016813
      py      :     0.009875

  7 H s       :     0.904422  s :     0.904422
      pz      :     0.025476  p :     0.065323
      px      :     0.019278
      py      :     0.020569

  8 C s       :     2.819617  s :     2.819617
      pz      :     0.853853  p :     2.724847
      px      :     0.884306
      py      :     0.986688
      dz2     :     0.024046  d :     0.346939
      dxz     :     0.030058
      dyz     :     0.067295
      dx2y2   :     0.080107
      dxy     :     0.145433

  9 O s       :     3.557061  s :     3.557061
      pz      :     1.439533  p :     4.584216
      px      :     1.710641
      py      :     1.434042
      dz2     :     0.004613  d :     0.031119
      dxz     :     0.000065
      dyz     :     0.006976
      dx2y2   :     0.013830
      dxy     :     0.005635



                      *****************************
                      * MAYER POPULATION ANALYSIS *
                      *****************************

  NA   - Mulliken gross atomic population
  ZA   - Total nuclear charge
  QA   - Mulliken gross atomic charge
  VA   - Mayer's total valence
  BVA  - Mayer's bonded valence
  FA   - Mayer's free valence

  ATOM       NA         ZA         QA         VA         BVA        FA
  0 C      5.8165     6.0000     0.1835     4.0238     4.0238     0.0000
  1 C      5.8161     6.0000     0.1839     4.0236     4.0236     0.0000
  2 O      8.2991     8.0000    -0.2991     2.1688     2.1688    -0.0000
  3 H      0.9703     1.0000     0.0297     0.9761     0.9761    -0.0000
  4 H      0.9672     1.0000     0.0328     0.9818     0.9818    -0.0000
  5 O      8.2991     8.0000    -0.2991     2.1687     2.1687     0.0000
  6 H      0.9704     1.0000     0.0296     0.9761     0.9761    -0.0000
  7 H      0.9672     1.0000     0.0328     0.9819     0.9819    -0.0000
  8 C      5.6936     6.0000     0.3064     4.3977     4.3977     0.0000
  9 O      8.2005     8.0000    -0.2005     2.3231     2.3231     0.0000

  Mayer bond orders larger than 0.100000
B(  0-C ,  1-C ) :   1.1095 B(  0-C ,  2-O ) :   0.9548 B(  0-C ,  3-H ) :   0.9404 
B(  0-C ,  4-H ) :   0.9496 B(  1-C ,  5-O ) :   0.9546 B(  1-C ,  6-H ) :   0.9404 
B(  1-C ,  7-H ) :   0.9496 B(  2-O ,  8-C ) :   1.0896 B(  5-O ,  8-C ) :   1.0897 
B(  8-C ,  9-O ) :   2.1668 

-------
TIMINGS
-------

Total SCF time: 0 days 0 hours 0 min 14 sec 

Total time                  ....      14.199 sec
Sum of individual times     ....      14.176 sec  ( 99.8%)

SCF preparation             ....       0.040 sec  (  0.3%)
Fock matrix formation       ....      14.091 sec  ( 99.2%)
  Startup                   ....       0.002 sec  (  0.0% of F)
  Split-RI-J                ....       0.723 sec  (  5.1% of F)
  Chain of spheres X        ....      10.665 sec  ( 75.7% of F)
  XC integration            ....       2.684 sec  ( 19.0% of F)
    XC Preparation          ....       0.000 sec  (  0.0% of XC)
    Basis function eval.    ....       1.160 sec  ( 43.2% of XC)
    Density eval.           ....       0.458 sec  ( 17.1% of XC)
    XC-Functional eval.     ....       0.159 sec  (  5.9% of XC)
    XC-Potential eval.      ....       0.743 sec  ( 27.7% of XC)
Diagonalization             ....       0.000 sec  (  0.0%)
Density matrix formation    ....       0.005 sec  (  0.0%)
Total Energy calculation    ....       0.004 sec  (  0.0%)
Population analysis         ....       0.006 sec  (  0.0%)
Orbital Transformation      ....       0.003 sec  (  0.0%)
Orbital Orthonormalization  ....       0.000 sec  (  0.0%)
DIIS solution               ....       0.017 sec  (  0.1%)
SOSCF solution              ....       0.009 sec  (  0.1%)
Finished LeanSCF after  14.2 sec

Maximum memory used throughout the entire LEANSCF-calculation: 11.2 MB


-------------------------------------------------------------------------------
                          DFT DISPERSION CORRECTION                            
                                                                               
                              DFTD3 V3.1  Rev 1                                
                          USING Becke-Johnson damping                          
-------------------------------------------------------------------------------
The B3LYP functional is recognized
Active option DFTDOPT                   ...         4   

molecular C6(AA) [au] = 919.605440 


            DFT-D V3
 parameters
 s6 scaling factor         :     1.0000 
 a1 scaling factor         :     0.3981 
 s8 scaling factor         :     1.9889 
 a2 scaling factor         :     4.4211 
 ad hoc parameters k1-k3   :    16.0000     1.3333    -4.0000 

 Edisp/kcal,au: -7.335900462093  -0.011690500276 
 E6   /kcal   :  -3.520231546 
 E8   /kcal   :  -3.815668917 
 % E8         :  52.013640810 

-------------------------   ----------------
Dispersion correction           -0.011690500
-------------------------   ----------------


-------------------------   --------------------
FINAL SINGLE POINT ENERGY      -341.981535569551
-------------------------   --------------------

------------------------------------------------------------------------------
                         ORCA SCF GRADIENT CALCULATION
------------------------------------------------------------------------------

Nuc. rep. gradient        (SHARK) ... done (  0.0 sec)
HCore & Overlap gradient  (SHARK) ... done (  0.0 sec)
Split-RIJ-J gradient      (SHARK) ... done (  0.3 sec)
COSX-gradient                     ... done (  9.0 sec)
XC gradient                       ... done (  1.6 sec)
Dispersion correction             ... done (  0.0 sec)

-------------------
DISPERSION GRADIENT
-------------------

   1   C   :   -0.000019095   -0.000125109    0.000001059
   2   C   :   -0.000001167   -0.000126521    0.000002599
   3   O   :   -0.000159391   -0.000083923    0.000030873
   4   H   :   -0.000151259    0.000147088   -0.000107018
   5   H   :   -0.000148869    0.000183726    0.000066529
   6   O   :    0.000143838   -0.000109202   -0.000028064
   7   H   :    0.000173093    0.000124024    0.000103075
   8   H   :    0.000176191    0.000155541   -0.000071464
   9   C   :    0.000022461    0.000278935   -0.000004057
  10   O   :   -0.000035801   -0.000444558    0.000006467

Difference to translation invariance:
           :    0.0000000000   -0.0000000000    0.0000000000

Difference to rotation invariance:
           :    0.0000000000   -0.0000000000    0.0000000000

Norm of the Dispersion gradient    ...    0.0007802177
RMS gradient                       ...    0.0001424476
MAX gradient                       ...    0.0004445577

------------------
CARTESIAN GRADIENT
------------------

   1   C   :    0.012641301   -0.010764296   -0.002209992
   2   C   :   -0.014200399   -0.008528889    0.002522189
   3   O   :   -0.011560719    0.010105918    0.002105811
   4   H   :    0.001441692   -0.002492846    0.005615799
   5   H   :    0.004073318   -0.000983983   -0.003047364
   6   O   :    0.013038013    0.008088868   -0.002371588
   7   H   :   -0.001844311   -0.002396326   -0.005560878
   8   H   :   -0.004178146   -0.000236259    0.003047374
   9   C   :    0.004589093    0.056906947   -0.000816652
  10   O   :   -0.003999840   -0.049699135    0.000715301

Difference to translation invariance:
           :   -0.0000000000   -0.0000000002    0.0000000000

Difference to rotation invariance:
           :   -0.0000020733   -0.0000089134    0.0001250806

Norm of the Cartesian gradient     ...    0.0832030907
RMS gradient                       ...    0.0151907365
MAX gradient                       ...    0.0569069472

-------
TIMINGS
-------

Total SCF gradient time     ....       10.989 sec

Densities                   ....       0.000 sec  (  0.0%)
One electron gradient       ....       0.034 sec  (  0.3%)
RI-J Coulomb gradient       ....       0.313 sec  (  2.8%)
COSX gradient               ....       8.990 sec  ( 81.8%)
XC gradient                 ....       1.616 sec  ( 14.7%)

Maximum memory used throughout the entire SCFGRAD-calculation: 27.6 MB
------------------------------------------------------------------------------
                         ORCA GEOMETRY RELAXATION STEP
------------------------------------------------------------------------------

Reading the OPT-File                    .... done
Getting information on internals        .... done
Copying old internal coords+grads       .... done
Making the new internal coordinates     .... (2022 redundants) done
Validating the new internal coordinates .... (2022 redundants) done
Calculating the B-matrix                .... done
Calculating the G,G- and P matrices     .... done
Transforming gradient to internals      .... done
Projecting the internal gradient        .... done
Number of atoms                         ....  10
Number of internal coordinates          ....  43
Current Energy                          ....  -341.981535570 Eh
Current gradient norm                   ....     0.083203091 Eh/bohr
Maximum allowed component of the step   ....  0.300
Current trust radius                    ....  0.300
Evaluating the initial hessian          ....  (Almloef) done
Projecting the Hessian                  .... done
Forming the augmented Hessian           .... done
Diagonalizing the augmented Hessian     .... done
Last element of RFO vector              ....  0.991340725
Lowest eigenvalues of augmented Hessian:
 -0.005374065  0.020833123  0.025138888  0.027236156  0.113760532
Length of the computed step             ....  0.132461785
The final length of the internal step   ....  0.132461785
Converting the step to Cartesian space:
 Initial RMS(Int)=    0.0202002328
Transforming coordinates:
 Iter   0:  RMS(Cart)=    0.0264473227 RMS(Int)=    0.0201830042
done
Storing new coordinates                 .... done

                                .--------------------.
          ----------------------|Geometry convergence|-------------------------
          Item                value                   Tolerance       Converged
          ---------------------------------------------------------------------
          RMS gradient        0.0091628161            0.0001000000      NO
          MAX gradient        0.0498649614            0.0003000000      NO
          RMS step            0.0202002328            0.0020000000      NO
          MAX step            0.0472555824            0.0040000000      NO
          ........................................................
          Max(Bonds)      0.0250      Max(Angles)    1.69
          Max(Dihed)        2.43      Max(Improp)    0.00
          ---------------------------------------------------------------------

The optimization has not yet converged - more geometry cycles are needed


    ---------------------------------------------------------------------------
                         Redundant Internal Coordinates
                            (Angstroem and degrees)

        Definition                    Value    dE/dq     Step     New-Value
    ----------------------------------------------------------------------------
     1. B(C   1,C   0)                1.4940 -0.015142  0.0200    1.5140   
     2. B(O   2,C   0)                1.4150 -0.010815  0.0121    1.4271   
     3. B(H   3,C   0)                1.0952 -0.006143  0.0091    1.1043   
     4. B(H   4,C   0)                1.0933 -0.004022  0.0059    1.0992   
     5. B(O   5,C   1)                1.4150 -0.011014  0.0122    1.4272   
     6. B(H   6,C   1)                1.0952 -0.006161  0.0091    1.1043   
     7. B(H   7,C   1)                1.0933 -0.004018  0.0059    1.0992   
     8. B(C   8,O   5)                1.3665  0.004833 -0.0056    1.3610   
     9. B(C   8,O   2)                1.3665  0.004938 -0.0056    1.3609   
    10. B(O   9,C   8)                1.2187  0.049865 -0.0250    1.1937   
    11. A(O   2,C   0,H   4)          110.97 -0.001825   -0.34    110.63   
    12. A(C   1,C   0,O   2)          102.95  0.006358   -0.70    102.25   
    13. A(H   3,C   0,H   4)          109.10  0.000993    0.01    109.11   
    14. A(C   1,C   0,H   3)          112.48 -0.000871   -0.14    112.34   
    15. A(O   2,C   0,H   3)          108.66 -0.000710    0.25    108.91   
    16. A(C   1,C   0,H   4)          112.51 -0.003748    0.86    113.37   
    17. A(C   0,C   1,O   5)          102.95  0.007641   -0.77    102.19   
    18. A(H   6,C   1,H   7)          109.10 -0.001940    0.18    109.27   
    19. A(O   5,C   1,H   7)          110.97  0.002739   -0.52    110.45   
    20. A(C   0,C   1,H   7)          112.51 -0.004868    0.87    113.39   
    21. A(O   5,C   1,H   6)          108.66 -0.000776    0.23    108.89   
    22. A(C   0,C   1,H   6)          112.48 -0.002126   -0.07    112.41   
    23. A(C   0,O   2,C   8)          106.60 -0.009889    1.66    108.26   
    24. A(C   1,O   5,C   8)          106.60 -0.010549    1.69    108.29   
    25. A(O   2,C   8,O   5)          111.08  0.006016   -0.94    110.14   
    26. A(O   5,C   8,O   9)          124.46 -0.003006    0.47    124.93   
    27. A(O   2,C   8,O   9)          124.46 -0.003010    0.47    124.93   
    28. D(O   5,C   1,C   0,H   4)    150.69  0.004579   -2.43    148.26   
    29. D(O   5,C   1,C   0,H   3)    -85.62  0.002327   -1.85    -87.47   
    30. D(H   6,C   1,C   0,H   3)    157.60 -0.000196   -1.65    155.96   
    31. D(H   6,C   1,C   0,H   4)     33.91  0.002057   -2.22     31.69   
    32. D(H   6,C   1,C   0,O   2)    -85.62  0.002245   -1.82    -87.44   
    33. D(O   5,C   1,C   0,O   2)     31.16  0.004768   -2.03     29.13   
    34. D(C   8,O   2,C   0,C   1)    -25.53  0.000472    1.04    -24.49   
    35. D(C   8,O   2,C   0,H   4)   -146.12  0.002098    0.60   -145.52   
    36. D(C   8,O   2,C   0,H   3)     93.93  0.002440    0.63     94.56   
    37. D(C   8,O   5,C   1,H   7)   -146.12  0.000738    0.68   -145.44   
    38. D(C   8,O   5,C   1,H   6)     93.93  0.001952    0.64     94.56   
    39. D(C   8,O   5,C   1,C   0)    -25.53  0.000791    1.01    -24.52   
    40. D(O   2,C   8,O   5,C   1)     10.43 -0.001481   -0.27     10.16   
    41. D(O   9,C   8,O   2,C   0)   -169.57 -0.000991   -0.32   -169.89   
    42. D(O   5,C   8,O   2,C   0)     10.43 -0.000517   -0.34     10.09   
    43. D(O   9,C   8,O   5,C   1)   -169.57 -0.001007   -0.29   -169.86   
    ----------------------------------------------------------------------------

Geometry step timings:
Preparation and reading OPT file:      0.001 s (17.445 %)
Internal coordinates            :      0.000 s ( 6.044 %)
B/P matrices and projection     :      0.001 s (14.324 %)
Hessian update/contruction      :      0.001 s (23.759 %)
Making the step                 :      0.000 s ( 8.329 %)
Converting the step to Cartesian:      0.000 s ( 0.958 %)
Storing new data                :      0.000 s ( 1.818 %)
Checking convergence            :      0.000 s ( 0.025 %)
Final printing                  :      0.001 s (26.904 %)
Total time                      :      0.004 s

Time for energy+gradient        :     26.503 s
Time for complete geometry iter :     26.605 s

         *************************************************************
         *                GEOMETRY OPTIMIZATION CYCLE   2            *
         *************************************************************
---------------------------------
CARTESIAN COORDINATES (ANGSTROEM)
---------------------------------
  C     -7.823542    2.557020    0.009662
  C     -6.314945    2.436892    0.054209
  O     -8.242859    1.241505    0.370537
  H     -8.196441    2.786242   -1.004169
  H     -8.223139    3.298275    0.716184
  O     -6.112653    1.061452   -0.268704
  H     -5.906802    2.631559    1.061685
  H     -5.804145    3.081665   -0.674943
  C     -7.240041    0.374720    0.062254
  O     -7.335503   -0.815060    0.079274

----------------------------
CARTESIAN COORDINATES (A.U.)
----------------------------
  NO LB      ZA    FRAG     MASS         X           Y           Z
   0 C     6.0000    0    12.011  -14.784351    4.832067    0.018258
   1 C     6.0000    0    12.011  -11.933517    4.605059    0.102440
   2 O     8.0000    0    15.999  -15.576747    2.346105    0.700214
   3 H     1.0000    0     1.008  -15.489028    5.265235   -1.897604
   4 H     1.0000    0     1.008  -15.539480    6.232837    1.353391
   5 O     8.0000    0    15.999  -11.551241    2.005853   -0.507777
   6 H     1.0000    0     1.008  -11.162238    4.972925    2.006295
   7 H     1.0000    0     1.008  -10.968244    5.823502   -1.275458
   8 C     6.0000    0    12.011  -13.681695    0.708117    0.117643
   9 O     8.0000    0    15.999  -13.862092   -1.540239    0.149807

--------------------------------
INTERNAL COORDINATES (ANGSTROEM)
--------------------------------
 C      0   0   0     0.000000000000     0.00000000     0.00000000
 C      1   0   0     1.514026797221     0.00000000     0.00000000
 O      1   2   0     1.427107765374   102.25074671     0.00000000
 H      1   2   3     1.104286745154   112.33087227   243.38883392
 H      1   2   3     1.099232056302   113.37908647   119.11641665
 O      2   1   3     1.427245786459   102.18294524    29.14650910
 H      2   1   3     1.104302866906   112.40337306   272.56796575
 H      2   1   3     1.099232768266   113.38856023   148.01182133
 C      3   1   2     1.360881995524   108.25977794   335.52050492
 O      9   3   1     1.193723987883   124.93633173   190.10622016

---------------------------
INTERNAL COORDINATES (A.U.)
---------------------------
 C      0   0   0     0.000000000000     0.00000000     0.00000000
 C      1   0   0     2.861096006166     0.00000000     0.00000000
 O      1   2   0     2.696842840150   102.25074671     0.00000000
 H      1   2   3     2.086799521660   112.33087227   243.38883392
 H      1   2   3     2.077247544038   113.37908647   119.11641665
 O      2   1   3     2.697103662200   102.18294524    29.14650910
 H      2   1   3     2.086829987357   112.40337306   272.56796575
 H      2   1   3     2.077248889455   113.38856023   148.01182133
 C      3   1   2     2.571694272124   108.25977794   335.52050492
 O      9   3   1     2.255811416591   124.93633173   190.10622016

------------------------------------------------------------------------------
                   ___                                                        
                  /   \      - P O W E R E D   B Y -                         
                 /     \                                                     
                 |  |  |   _    _      __       _____    __    __             
                 |  |  |  | |  | |    /  \     |  _  \  |  |  /  |          
                  \  \/   | |  | |   /    \    | | | |  |  | /  /          
                 / \  \   | |__| |  /  /\  \   | |_| |  |  |/  /          
                |  |  |   |  __  | /  /__\  \  |    /   |      \           
                |  |  |   | |  | | |   __   |  |    \   |  |\   \          
                \     /   | |  | | |  |  |  |  | |\  \  |  | \   \       
                 \___/    |_|  |_| |__|  |__|  |_| \__\ |__|  \__/        
                                                                              
                      - O R C A' S   B I G   F R I E N D -                    
                                      &                                       
                       - I N T E G R A L  F E E D E R -                       
                                                                              
 v1 FN, 2020, v2 2021, v3 2022-2024                                           
------------------------------------------------------------------------------


----------------------
SHARK INTEGRAL PACKAGE
----------------------

Number of atoms                             ...     10
Number of basis functions                   ...    104
Number of shells                            ...     48
Maximum angular momentum                    ...      2
Integral batch strategy                     ... SHARK/LIBINT Hybrid
RI-J (if used) integral strategy            ... SPLIT-RIJ (Revised 2003 algorithm where possible)
Printlevel                                  ...      1
Contraction scheme used                     ... SEGMENTED contraction
Prescreening option                         ... SCHWARTZ
   Thresh                                   ... 2.500e-11
   Tcut                                     ... 2.500e-12
   Tpresel                                  ... 2.500e-12 
Coulomb Range Separation                    ... NOT USED
Exchange Range Separation                   ... NOT USED
Multipole approximations                    ... NOT USED
Finite Nucleus Model                        ... NOT USED
CABS basis                                  ... NOT available
Auxiliary Coulomb fitting basis             ... AVAILABLE
   # of basis functions in Aux-J            ...    338
   # of shells in Aux-J                     ...    110
   Maximum angular momentum in Aux-J        ...      4
Auxiliary J/K fitting basis                 ... NOT available
Auxiliary Correlation fitting basis         ... NOT available
Auxiliary 'external' fitting basis          ... NOT available

Checking pre-screening integrals            ... done (  0.0 sec) Dimension = 48
Check shell pair data                       ... done (  0.0 sec)
Shell pair information
Shell pair cut-off parameter TPreSel        ...   2.5e-12
Total number of shell pairs                 ...      1176
Shell pairs after pre-screening             ...      1153
Total number of primitive shell pairs       ...      4368
Primitive shell pairs kept                  ...      3367
          la=0 lb=0:    338 shell pairs
          la=1 lb=0:    410 shell pairs
          la=1 lb=1:    136 shell pairs
          la=2 lb=0:    152 shell pairs
          la=2 lb=1:     96 shell pairs
          la=2 lb=2:     21 shell pairs

Calculating one electron integrals          ... done (  0.0 sec)
Calculating RI/J V-Matrix + Cholesky decomp.... done (  0.0 sec)
Calculating Nuclear repulsion               ... done (  0.0 sec) ENN=    246.762985905978 Eh

Diagonalization of the overlap matrix:
Smallest eigenvalue                        ... 2.799e-03
Time for diagonalization                   ...    0.001 sec
Threshold for overlap eigenvalues          ... 1.000e-07
Number of eigenvalues below threshold      ... 0
Time for construction of square roots      ...    0.000 sec
Total time needed                          ...    0.002 sec

-------------------
DFT GRID GENERATION
-------------------

General Integration Accuracy     IntAcc      ... 4.388
Radial Grid Type                 RadialGrid  ... OptM3 with GC (2021)
Angular Grid (max. ang.)         AngularGrid ... 4 (Lebedev-302)
Angular grid pruning method      GridPruning ... 4 (adaptive)
Weight generation scheme         WeightScheme... mBecke (2022)
Basis function cutoff            BFCut       ... 1.0000e-11
Integration weight cutoff        WCut        ... 1.0000e-14
Partially contracted basis set               ... off
Rotationally invariant grid construction     ... off
Angular grids for H and He will be reduced by one unit

Total number of grid points                  ...    49307
Total number of batches                      ...      774
Average number of points per batch           ...       63
Average number of grid points per atom       ...     4931

--------------------
COSX GRID GENERATION
--------------------

GRIDX 1
-------
General Integration Accuracy     IntAcc      ... 3.816
Radial Grid Type                 RadialGrid  ... OptM3 with GC (2021)
Angular Grid (max. ang.)         AngularGrid ... 1 (Lebedev-50)
Angular grid pruning method      GridPruning ... 4 (adaptive)
Weight generation scheme         WeightScheme... mBecke (2022)
Basis function cutoff            BFCut       ... 1.0000e-11
Integration weight cutoff        WCut        ... 1.0000e-14
Partially contracted basis set               ... on
Rotationally invariant grid construction     ... off
Angular grids for H and He will be reduced by one unit

Total number of grid points                  ...     6288
Total number of batches                      ...       56
Average number of points per batch           ...      112
Average number of grid points per atom       ...      629
UseSFitting                                  ... on

GRIDX 2
-------
General Integration Accuracy     IntAcc      ... 4.020
Radial Grid Type                 RadialGrid  ... OptM3 with GC (2021)
Angular Grid (max. ang.)         AngularGrid ... 2 (Lebedev-110)
Angular grid pruning method      GridPruning ... 4 (adaptive)
Weight generation scheme         WeightScheme... mBecke (2022)
Basis function cutoff            BFCut       ... 1.0000e-11
Integration weight cutoff        WCut        ... 1.0000e-14
Partially contracted basis set               ... on
Rotationally invariant grid construction     ... off
Angular grids for H and He will be reduced by one unit

Total number of grid points                  ...    14075
Total number of batches                      ...      116
Average number of points per batch           ...      121
Average number of grid points per atom       ...     1408
UseSFitting                                  ... on

GRIDX 3
-------
General Integration Accuracy     IntAcc      ... 4.338
Radial Grid Type                 RadialGrid  ... OptM3 with GC (2021)
Angular Grid (max. ang.)         AngularGrid ... 3 (Lebedev-194)
Angular grid pruning method      GridPruning ... 4 (adaptive)
Weight generation scheme         WeightScheme... mBecke (2022)
Basis function cutoff            BFCut       ... 1.0000e-11
Integration weight cutoff        WCut        ... 1.0000e-14
Partially contracted basis set               ... on
Rotationally invariant grid construction     ... off
Angular grids for H and He will be reduced by one unit

Total number of grid points                  ...    31073
Total number of batches                      ...      246
Average number of points per batch           ...      126
Average number of grid points per atom       ...     3107
UseSFitting                                  ... on
Initializing property integral containers    ... done (  0.0 sec)

SHARK setup successfully completed in   0.6 seconds

Maximum memory used throughout the entire STARTUP-calculation: 20.5 MB
Occupation numbers will be reassigned to an Aufbau configuration
             **** ENERGY FILE WAS UPDATED (ec.en.tmp) ****
Finished Guess after   0.0 sec
Maximum memory used throughout the entire GUESS-calculation: 7.8 MB
----------------------------------------D-I-I-S--------------------------------------------
Iteration    Energy (Eh)           Delta-E    RMSDP     MaxDP     DIISErr   Damp  Time(sec)
-------------------------------------------------------------------------------------------
               ***  Starting incremental Fock matrix formation  ***
    1    -341.9718722199962713     0.00e+00  2.60e-04  3.65e-03  1.43e-02  0.700   1.4
    2    -341.9722546322836934    -3.82e-04  2.22e-04  2.67e-03  8.93e-03  0.700   0.7
                               ***Turning on AO-DIIS***
    3    -341.9725289267566950    -2.74e-04  1.69e-04  2.03e-03  5.46e-03  0.700   0.7
    4    -341.9727223591628444    -1.93e-04  4.27e-04  5.07e-03  4.86e-03  0.000   0.7
                              *** Initializing SOSCF ***
---------------------------------------S-O-S-C-F--------------------------------------
Iteration    Energy (Eh)           Delta-E    RMSDP     MaxDP     MaxGrad    Time(sec)
--------------------------------------------------------------------------------------
    5    -341.9732035122319758    -4.81e-04  4.10e-05  9.39e-04  5.63e-04     0.7
               *** Restarting incremental Fock matrix formation ***
    6    -341.9732044330580720    -9.21e-07  3.08e-05  6.65e-04  1.18e-04     1.4
    7    -341.9732040711896843     3.62e-07  1.71e-05  3.90e-04  2.42e-04     1.1
    8    -341.9732048591960165    -7.88e-07  9.51e-06  1.62e-04  6.32e-05     1.1
    9    -341.9732048151844310     4.40e-08  5.85e-06  9.45e-05  7.11e-05     1.0
   10    -341.9732048978504508    -8.27e-08  3.43e-07  8.47e-06  1.60e-06     1.0
                  *** Gradient check signals convergence ***

               *****************************************************
               *                     SUCCESS                       *
               *           SCF CONVERGED AFTER  10 CYCLES          *
               *****************************************************

Recomputing exchange energy using gridx3       ... done (    2.223 sec)
Old exchange energy                            :     -8.325379892 Eh
New exchange energy                            :     -8.325416338 Eh
Exchange energy change after final integration :     -0.000036445 Eh
Total energy after final integration           :   -341.973241343 Eh
             **** ENERGY FILE WAS UPDATED (ec.en.tmp) ****

----------------
TOTAL SCF ENERGY
----------------

Total Energy       :       -341.97324134317387 Eh           -9305.56498 eV

Components:
Nuclear Repulsion  :        246.76298590597798 Eh            6714.76222 eV
Electronic Energy  :       -588.73619080382844 Eh          -16020.32621 eV
One Electron Energy:       -955.71139338446710 Eh          -26006.22915 eV
Two Electron Energy:        366.97520258063867 Eh            9985.90294 eV

Virial components:
Potential Energy   :       -681.33679374541271 Eh          -18540.11672 eV
Kinetic Energy     :        339.36355240223884 Eh            9234.55174 eV
Virial Ratio       :          2.00768995056323

DFT components:
N(Alpha)           :       22.999996082139 electrons
N(Beta)            :       22.999996082139 electrons
N(Total)           :       45.999992164277 electrons
E(X)               :      -33.147421885552 Eh       
E(C)               :       -1.900565986876 Eh       
E(XC)              :      -35.047987872428 Eh       

---------------
SCF CONVERGENCE
---------------

  Last Energy change         ...    8.2666e-08  Tolerance :   1.0000e-08
  Last MAX-Density change    ...    8.4678e-06  Tolerance :   1.0000e-07
  Last RMS-Density change    ...    3.4331e-07  Tolerance :   5.0000e-09
  Last DIIS Error            ...    5.6263e-04  Tolerance :   5.0000e-07
  Last Orbital Gradient      ...    1.6036e-06  Tolerance :   1.0000e-05
  Last Orbital Rotation      ...    3.3401e-06  Tolerance :   1.0000e-05


Total SCF time: 0 days 0 hours 0 min 11 sec 
Finished LeanSCF after  12.0 sec

Maximum memory used throughout the entire LEANSCF-calculation: 11.4 MB


-------------------------------------------------------------------------------
                          DFT DISPERSION CORRECTION                            
                                                                               
                              DFTD3 V3.1  Rev 1                                
                          USING Becke-Johnson damping                          
-------------------------------------------------------------------------------
-------------------------   ----------------
Dispersion correction           -0.011665670
-------------------------   ----------------


-------------------------   --------------------
FINAL SINGLE POINT ENERGY      -341.984907012964
-------------------------   --------------------

[...]
  13   2.0000      -0.522974       -14.2309 
  14   2.0000      -0.511187       -13.9101 
  15   2.0000      -0.449128       -12.2214 
  16   2.0000      -0.443885       -12.0787 
  17   2.0000      -0.437096       -11.8940 
  18   2.0000      -0.383441       -10.4340 
  19   2.0000      -0.380527       -10.3547 
  20   2.0000      -0.315454        -8.5839 
  21   2.0000      -0.312481        -8.5030 
  22   2.0000      -0.297124        -8.0851 
  23   0.0000       0.033522         0.9122 
  24   0.0000       0.039645         1.0788 
  25   0.0000       0.069207         1.8832 
  26   0.0000       0.073138         1.9902 
  27   0.0000       0.092597         2.5197 
  28   0.0000       0.141011         3.8371 
  29   0.0000       0.149509         4.0683 
  30   0.0000       0.181183         4.9302 
  31   0.0000       0.224065         6.0971 
  32   0.0000       0.319588         8.6964 
  33   0.0000       0.366845         9.9824 
*Only the first 10 virtual orbitals were printed.

                    ********************************
                    * MULLIKEN POPULATION ANALYSIS *
                    ********************************

-----------------------
MULLIKEN ATOMIC CHARGES
-----------------------
   0 C :    0.177483
   1 C :    0.177580
   2 O :   -0.310907
   3 H :    0.035098
   4 H :    0.037540
   5 O :   -0.310972
   6 H :    0.035042
   7 H :    0.037517
   8 C :    0.294375
   9 O :   -0.172756
Sum of atomic charges:   -0.0000000

--------------------------------
MULLIKEN REDUCED ORBITAL CHARGES
--------------------------------
  0 C s       :     3.008572  s :     3.008572
      pz      :     1.029571  p :     2.755328
      px      :     0.960583
      py      :     0.765174
      dz2     :     0.010119  d :     0.058617
      dxz     :     0.006323
      dyz     :     0.014196
      dx2y2   :     0.016779
      dxy     :     0.011200

  1 C s       :     3.008482  s :     3.008482
      pz      :     1.033044  p :     2.755316
      px      :     0.991208
      py      :     0.731064
      dz2     :     0.009970  d :     0.058622
      dxz     :     0.006922
      dyz     :     0.013556
      dx2y2   :     0.018061
      dxy     :     0.010114

  2 O s       :     3.762202  s :     3.762202
      pz      :     1.756262  p :     4.531370
      px      :     1.563619
      py      :     1.211489
      dz2     :     0.002328  d :     0.017335
      dxz     :     0.002793
      dyz     :     0.002437
      dx2y2   :     0.003542
      dxy     :     0.006235

  3 H s       :     0.943802  s :     0.943802
      pz      :     0.012848  p :     0.021100
      px      :     0.004983
      py      :     0.003269

  4 H s       :     0.941033  s :     0.941033
      pz      :     0.009500  p :     0.021427
      px      :     0.005368
      py      :     0.006559

  5 O s       :     3.762286  s :     3.762286
      pz      :     1.757861  p :     4.531351
      px      :     1.517030
      py      :     1.256461
      dz2     :     0.002332  d :     0.017335
      dxz     :     0.002902
      dyz     :     0.002296
      dx2y2   :     0.005129
      dxy     :     0.004677

  6 H s       :     0.943857  s :     0.943857
      pz      :     0.012723  p :     0.021101
      px      :     0.005489
      py      :     0.002889

  7 H s       :     0.941053  s :     0.941053
      pz      :     0.009777  p :     0.021430
      px      :     0.006387
      py      :     0.005266

  8 C s       :     2.980912  s :     2.980912
      pz      :     0.851942  p :     2.553194
      px      :     0.827062
      py      :     0.874191
      dz2     :     0.010483  d :     0.171519
      dxz     :     0.016355
      dyz     :     0.035747
      dx2y2   :     0.037541
      dxy     :     0.071394

  9 O s       :     3.708306  s :     3.708306
      pz      :     1.432531  p :     4.444100
      px      :     1.707422
      py      :     1.304146
      dz2     :     0.002248  d :     0.020350
      dxz     :     0.000067
      dyz     :     0.006348
      dx2y2   :     0.006939
      dxy     :     0.004747



                     *******************************
                     * LOEWDIN POPULATION ANALYSIS *
                     *******************************

----------------------
LOEWDIN ATOMIC CHARGES
----------------------
   0 C :    0.082792
   1 C :    0.082796
   2 O :   -0.105348
   3 H :    0.023297
   4 H :    0.029467
   5 O :   -0.105378
   6 H :    0.023281
   7 H :    0.029471
   8 C :    0.085862
   9 O :   -0.146239

-------------------------------
LOEWDIN REDUCED ORBITAL CHARGES
-------------------------------
  0 C s       :     2.857452  s :     2.857452
      pz      :     1.077183  p :     2.926772
      px      :     1.012572
      py      :     0.837017
      dz2     :     0.023191  d :     0.132983
      dxz     :     0.013278
      dyz     :     0.033509
      dx2y2   :     0.039617
      dxy     :     0.023388

  1 C s       :     2.857429  s :     2.857429
      pz      :     1.080090  p :     2.926780
      px      :     1.034303
      py      :     0.812388
      dz2     :     0.022737  d :     0.132995
      dxz     :     0.015736
      dyz     :     0.031146
      dx2y2   :     0.042615
      dxy     :     0.020761

  2 O s       :     3.469697  s :     3.469697
      pz      :     1.738505  p :     4.603549
      px      :     1.595387
      py      :     1.269657
      dz2     :     0.004015  d :     0.032102
      dxz     :     0.003254
      dyz     :     0.004486
      dx2y2   :     0.006870
      dxy     :     0.013477

  3 H s       :     0.912040  s :     0.912040
      pz      :     0.038152  p :     0.064663
      px      :     0.015211
      py      :     0.011299

  4 H s       :     0.905948  s :     0.905948
      pz      :     0.027486  p :     0.064585
      px      :     0.016306
      py      :     0.020793

  5 O s       :     3.469716  s :     3.469716
      pz      :     1.739691  p :     4.603560
      px      :     1.556270
      py      :     1.307599
      dz2     :     0.004002  d :     0.032102
      dxz     :     0.003636
      dyz     :     0.004084
      dx2y2   :     0.010233
      dxy     :     0.010147

  6 H s       :     0.912059  s :     0.912059
      pz      :     0.037719  p :     0.064659
      px      :     0.016590
      py      :     0.010350

  7 H s       :     0.905945  s :     0.905945
      pz      :     0.028289  p :     0.064584
      px      :     0.019129
      py      :     0.017166

  8 C s       :     2.808849  s :     2.808849
      pz      :     0.851221  p :     2.736784
      px      :     0.887965
      py      :     0.997598
      dz2     :     0.022553  d :     0.368505
      dxz     :     0.031878
      dyz     :     0.068926
      dx2y2   :     0.082971
      dxy     :     0.162178

  9 O s       :     3.533626  s :     3.533626
      pz      :     1.425433  p :     4.578779
      px      :     1.701987
      py      :     1.451360
      dz2     :     0.004899  d :     0.033834
      dxz     :     0.000074
      dyz     :     0.007841
      dx2y2   :     0.014723
      dxy     :     0.006297



                      *****************************
                      * MAYER POPULATION ANALYSIS *
                      *****************************

  NA   - Mulliken gross atomic population
  ZA   - Total nuclear charge
  QA   - Mulliken gross atomic charge
  VA   - Mayer's total valence
  BVA  - Mayer's bonded valence
  FA   - Mayer's free valence

  ATOM       NA         ZA         QA         VA         BVA        FA
  0 C      5.8225     6.0000     0.1775     4.0032     4.0032    -0.0000
  1 C      5.8224     6.0000     0.1776     4.0029     4.0029    -0.0000
  2 O      8.3109     8.0000    -0.3109     2.1623     2.1623    -0.0000
  3 H      0.9649     1.0000     0.0351     0.9744     0.9744    -0.0000
  4 H      0.9625     1.0000     0.0375     0.9803     0.9803    -0.0000
  5 O      8.3110     8.0000    -0.3110     2.1621     2.1621    -0.0000
  6 H      0.9650     1.0000     0.0350     0.9744     0.9744    -0.0000
  7 H      0.9625     1.0000     0.0375     0.9804     0.9804    -0.0000
  8 C      5.7056     6.0000     0.2944     4.4214     4.4214     0.0000
  9 O      8.1728     8.0000    -0.1728     2.3510     2.3510    -0.0000

  Mayer bond orders larger than 0.100000
B(  0-C ,  1-C ) :   1.0864 B(  0-C ,  2-O ) :   0.9583 B(  0-C ,  3-H ) :   0.9459 
B(  0-C ,  4-H ) :   0.9551 B(  1-C ,  5-O ) :   0.9581 B(  1-C ,  6-H ) :   0.9459 
B(  1-C ,  7-H ) :   0.9551 B(  2-O ,  8-C ) :   1.0913 B(  5-O ,  8-C ) :   1.0912 
B(  8-C ,  9-O ) :   2.1949 

-------
TIMINGS
-------

Total SCF time: 0 days 0 hours 0 min 8 sec 

Total time                  ....       8.924 sec
Sum of individual times     ....       8.905 sec  ( 99.8%)

SCF preparation             ....       0.045 sec  (  0.5%)
Fock matrix formation       ....       8.825 sec  ( 98.9%)
  Startup                   ....       0.001 sec  (  0.0% of F)
  Split-RI-J                ....       0.348 sec  (  3.9% of F)
  Chain of spheres X        ....       7.194 sec  ( 81.5% of F)
  XC integration            ....       1.274 sec  ( 14.4% of F)
    Basis function eval.    ....       0.577 sec  ( 45.3% of XC)
    Density eval.           ....       0.224 sec  ( 17.5% of XC)
    XC-Functional eval.     ....       0.079 sec  (  6.2% of XC)
    XC-Potential eval.      ....       0.324 sec  ( 25.4% of XC)
Diagonalization             ....       0.000 sec  (  0.0%)
Density matrix formation    ....       0.003 sec  (  0.0%)
Total Energy calculation    ....       0.002 sec  (  0.0%)
Population analysis         ....       0.021 sec  (  0.2%)
Orbital Transformation      ....       0.002 sec  (  0.0%)
Orbital Orthonormalization  ....       0.000 sec  (  0.0%)
DIIS solution               ....       0.002 sec  (  0.0%)
SOSCF solution              ....       0.007 sec  (  0.1%)
Finished LeanSCF after   8.9 sec

Maximum memory used throughout the entire LEANSCF-calculation: 12.2 MB


-------------------------------------------------------------------------------
                          DFT DISPERSION CORRECTION                            
                                                                               
                              DFTD3 V3.1  Rev 1                                
                          USING Becke-Johnson damping                          
-------------------------------------------------------------------------------
The B3LYP functional is recognized
Active option DFTDOPT                   ...         4   

molecular C6(AA) [au] = 923.617874 


            DFT-D V3
 parameters
 s6 scaling factor         :     1.0000 
 a1 scaling factor         :     0.3981 
 s8 scaling factor         :     1.9889 
 a2 scaling factor         :     4.4211 
 ad hoc parameters k1-k3   :    16.0000     1.3333    -4.0000 

 Edisp/kcal,au: -7.290690033320  -0.011618452879 
 E6   /kcal   :  -3.496657037 
 E8   /kcal   :  -3.794032996 
 % E8         :  52.039422591 

-------------------------   ----------------
Dispersion correction           -0.011618453
-------------------------   ----------------


-------------------------   --------------------
FINAL SINGLE POINT ENERGY      -341.985564495677
-------------------------   --------------------

                                *** OPTIMIZATION RUN DONE ***


------------------------------------------------------------------------------
                              ORCA PROPERTY CALCULATIONS
------------------------------------------------------------------------------

GBWName                                 ... ec.gbw
Number of atoms                         ...     10
Number of basis functions               ...    104
Max core memory                         ...   1024 MB

Electric properties:
Dipole moment                           ... YES
Quadrupole moment                       ...  NO
Static polarizability (Dipole/Dipole)   ...  NO
Static polarizability (Dipole/Quad.)    ...  NO
Static polarizability (Quad./Quad.)     ...  NO
Static polarizability (Velocity)        ...  NO

Atomic electric properties:
Dipole moment                           ...  NO
Quadrupole moment                       ...  NO
Static polarizability                   ...  NO

Choice of electric origin               ... Center of mass
Position of electric origin             ...   -13.566632     2.137771     0.096851

General magnetic properties:
Magnetizability                         ...  NO

EPR properties:
g-Tensor (aka g-matrix)                 ...  NO
Zero-Field splitting spin-orbit         ...  NO
Zero-field splitting spin-spin          ...  NO
Hyperfine couplings                     ...  NO (   0 nuclei)
Quadrupole couplings                    ...  NO (   0 nuclei)
Contact density                         ...  NO (   0 nuclei)

NMR properties:
Chemical shifts                         ...  NO (   0 nuclei)
Spin-rotation constants                 ...  NO (   0 nuclei)
Spin-spin couplings                     ...  NO (   0 nuclei,    0 pairs)

Choice of magnetic origin               ... GIAO
Position of magnetic origin             ...     0.000000     0.000000     0.000000

Properties with geometric perturbations:
SCF Hessian                             ...  NO
IR spectrum                             ...  NO
VCD spectrum                            ...  NO
X-ray spectroscopy properties:
SCF XES/XAS/RIXS spectra                ...  NO


-------------
DIPOLE MOMENT
-------------

Method             : SCF
Type of density    : Electron Density
Multiplicity       :   1
Irrep              :   0
Energy             :  -341.9739460427977065 Eh
Relativity type    : 
Basis              : AO
                                X                 Y                 Z
Electronic contribution:     -0.385248476      -4.781181971       0.069078569
Nuclear contribution   :      0.550336609       6.831200961      -0.099082622
                        -----------------------------------------
Total Dipole Moment    :      0.165088133       2.050018990      -0.030004053
                        -----------------------------------------
Magnitude (a.u.)       :      2.056874375
Magnitude (Debye)      :      5.228159173



--------------------
Rotational spectrum 
--------------------
 
Rotational constants in cm-1:             0.269140             0.127959             0.090419 
Rotational constants in MHz :          8068.615544          3836.121885          2710.706708 

Dipole components along the rotational axes: 
x,y,z [a.u.] :    -2.056874     0.000003     0.000034 
x,y,z [Debye]:    -5.228159     0.000009     0.000087 

 

Dipole moment calculation done in   0.0 sec 

Maximum memory used throughout the entire PROP-calculation: 6.8 MB

--------------------------------
SUGGESTED CITATIONS FOR THIS RUN
--------------------------------

Below you find a list of papers that are relevant to this ORCA run
We neither can nor want to force you to cite these papers, but we appreciate if you do
You receive ORCA, which is the product of decades of hard work by many enthusiastic individuals, for free
The only thing we kindly ask in return is that you cite our papers,
We deeply appreciate it, if you show your appreciation for ORCA by not just citing the generic ORCA reference.

Please note that relegating all ORCA citations to the supporting information does *not* help us.
SI sections are not indexed - citations you put there will not count into any citation statistics
But we need these citations in order to attract the funding resources that allow us to do what we are doing

Therefore, if you are a happy ORCA user, please consider citing a few of the papers listed below in the main body of your paper

In addition to the list printed below, the program has created the file ec.bibtex that contains the list in bibtex format
You can import this file easily into all common literature databanks and citation aid programs


List of essential papers. We consider these as the minimum necessary citations

  1. Neese,F.
     Software update: the ORCA program system, version 5.0
     WIRES Comput. Molec. Sci., 2022 12(1)e1606
     doi.org/10.1002/wcms.1606

List of papers to cite with high priority. The work reported in these papers was absolutely
necessary for this run to complete.
Our perspective: the developers of density functionals and basis sets usually get cited in chemistry papers
Good! But without the algorithms to do something with them, the functionals or basis sets would not do anything.
Hence, in our opinion, the algorithm design and method developments papers are equally worthy of getting cited

  1. Neese,F.
     An improvement of the resolution of the identity approximation for the formation of the Coulomb matrix
     J. Comp. Chem., 2003 24(14)1740-1747
     doi.org/10.1002/jcc.10318
  2. Neese,F.; Wennmohs,F.; Hansen,A.; Becker,U.
     Efficient, approximate and parallel Hartree-Fock and hybrid DFT calculations. A 'chain-of-spheres' algorithm for the Hartree-Fock exchange
     Chem. Phys., 2009 356(1-3)98-109
     doi.org/10.1016/j.chemphys.2008.10.036
  3. Helmich-Paris,B.; de Souza,B.; Neese,F.; Izsák,R.
     An improved chain of spheres for exchange algorithm
     J. Chem. Phys., 2021 155 104109
     doi.org/doi: 10.1063/5.0058766.
  4. Neese,F.
     The SHARK Integral Generation and Digestion System
     J. Comp. Chem., 2022  1-16
     doi.org/10.1002/jcc.26942
  5. Grimme,S.; Antony,J.; Ehrlich,S.; Krieg,H.
     A consistent and accurate ab initio parametrization of density functional dispersion correction (DFT-D) for the 94 elements H-Pu
     J. Chem. Phys., 2010 132 154104
     doi.org/10.1063/1.3382344
  6. Grimme,S.; Ehrlich,S.; Goerigk,L.
     Effect of the damping function in dispersion corrected density functional theory
     J. Comput. Chem., 2011 32(7)1456-1465
     doi.org/10.1002/jcc.21759

List of suggested additional citations. These are papers that are important in the 'surrounding' of 
of this run, or papers that preceded the highly important papers. If you like your results we are grateful for a citation.

  1. Izsak,R.; Neese,F.
     An overlap fitted chain of spheres exchange method
     J. Chem. Phys., 2011 135 144105
     doi.org/10.1063/1.3646921
  2. Izsak,R.; Hansen,A.; Neese,F.
     The resolution of identity and chain of spheres approximations for the LPNO-CCSD singles Fock term
     Molec. Phys., 2012 110 2413-2417
     doi.org/10.1080/00268976.2012.687466
  3. Neese,F.
     The ORCA program system
     WIRES Comput. Molec. Sci., 2012 2(1)73-78
     doi.org/10.1002/wcms.81
  4. Izsak,R.; Neese,F.; Klopper,W.
     Robust fitting techniques in the chain of spheres approximation to the Fock exchange: The role of the complementary space
     J. Chem. Phys., 2013 139 
     doi.org/10.1063/1.4819264
  5. Neese,F.
     Software update: the ORCA program system, version 4.0
     WIRES Comput. Molec. Sci., 2018 8(1)1-6
     doi.org/10.1002/wcms.1327
  6. Neese,F.; Wennmohs,F.; Becker,U.; Riplinger,C.
     The ORCA quantum chemistry program package
     J. Chem. Phys., 2020 152 Art. No. L224108
     doi.org/10.1063/5.0004608

List of optional additional citations

  1. Neese,F.
     Approximate second-order SCF convergence for spin unrestricted wavefunctions
     Chem. Phys. Lett., 2000 325(1-3)93-98
     doi.org/10.1016/s0009-2614(00)00662-x

Timings for individual modules:

Sum of individual times          ...      208.742 sec (=   3.479 min)
Startup calculation              ...        6.399 sec (=   0.107 min)   3.1 %
SCF iterations                   ...      105.690 sec (=   1.762 min)  50.6 %
Property calculations            ...        0.151 sec (=   0.003 min)   0.1 %
SCF Gradient evaluation          ...       96.423 sec (=   1.607 min)  46.2 %
Geometry relaxation              ...        0.080 sec (=   0.001 min)   0.0 %
                             ****ORCA TERMINATED NORMALLY****
TOTAL RUN TIME: 0 days 0 hours 3 minutes 29 seconds 894 msec
