
                                 *****************
                                 * O   R   C   A *
                                 *****************

                                            #,                                       
                                            ###                                      
                                            ####                                     
                                            #####                                    
                                            ######                                   
                                           ########,                                 
                                     ,,################,,,,,                         
                               ,,#################################,,                 
                          ,,##########################################,,             
                       ,#########################################, ''#####,          
                    ,#############################################,,   '####,        
                  ,##################################################,,,,####,       
                ,###########''''           ''''###############################       
              ,#####''   ,,,,##########,,,,          '''####'''          '####       
            ,##' ,,,,###########################,,,                        '##       
           ' ,,###''''                  '''############,,,                           
         ,,##''                                '''############,,,,        ,,,,,,###''
      ,#''                                            '''#######################'''  
     '                                                          ''''####''''         
             ,#######,   #######,   ,#######,      ##                                
            ,#'     '#,  ##    ##  ,#'     '#,    #''#        ,####,   ,####,        
            ##       ##  ##   ,#'  ##            #'  '#       #'       #'  '#        
            ##       ##  #######   ##           ,######,      #####,   #    #        
            '#,     ,#'  ##    ##  '#,     ,#' ,#      #,     #,   #   #,  ,#        
             '#######'   ##     ##  '#######'  #'      '#     '####' # '####'        



                #########################################################
                #                        -***-                          #
                #          Department of theory and spectroscopy        #
                #                                                       #
                #                      Frank Neese                      #
                #                                                       #
                #     Directorship, Architecture, Infrastructure        #
                #                    SHARK, DRIVERS                     #
                #        Core code/Algorithms in most modules           #
                #                                                       #
                #        Max Planck Institute fuer Kohlenforschung      #
                #                Kaiser Wilhelm Platz 1                 #
                #                 D-45470 Muelheim/Ruhr                 #
                #                      Germany                          #
                #                                                       #
                #                  All rights reserved                  #
                #                        -***-                          #
                #########################################################


                         Program Version 6.0.1  -  RELEASE   -


 With contributions from (in alphabetic order):
[Max-Planck-Institut fuer Kohlenforschung]                               
  Daniel Aravena         : Magnetic Suceptibility                        
  Michael Atanasov       : Ab Initio Ligand Field Theory (pilot matlab implementation)
  Alexander A. Auer      : GIAO ZORA, VPT2 properties, NMR spectrum      
  Ute Becker             : All parallelization in ORCA, NUMFREQ, NUMCALC 
  Giovanni Bistoni       : ED, misc. LED, open-shell LED, HFLD           
  Martin Brehm           : Molecular dynamics                            
  Dmytro Bykov           : pre 5.0 version of the SCF Hessian            
  Marcos Casanova-Páez   : Triplet and SCS-CIS(D). UHF-(DLPNO)-IP/EA/STEOM-CCSD. UHF-CVS-IP/STEOM-CCSD   
  Vijay G. Chilkuri      : MRCI spin determinant printing, contributions to CSF-ICE 
  Pauline Colinet        : FMM embedding                                 
  Dipayan Datta          : RHF DLPNO-CCSD density                        
  Achintya Kumar Dutta   : EOM-CC, STEOM-CC                              
  Nicolas Foglia         : Exact transition moments, OPA infrastructure, MCD improvements    
  Dmitry Ganyushin       : Spin-Orbit,Spin-Spin,Magnetic field MRCI      
  Miquel Garcia-Rates    : C-PCM and meta-GGA Hessian, CCSD/C-PCM, Gaussian charge scheme 
  Tiago L. C. Gouveia    : GS-ROHF, GS-ROCIS                             
  Yang Guo               : DLPNO-NEVPT2, F12-NEVPT2, CIM, IAO-localization        
  Andreas Hansen         : Spin unrestricted coupled pair/coupled cluster methods 
  Ingolf Harden          : AUTO-CI MPn and infrastructure                
  Benjamin Helmich-Paris : MC-RPA, TRAH-(SCF,CASSCF), AVAS, COSX integrals, SCF dyn. polar. 
  Lee Huntington         : MR-EOM, pCC                                   
  Robert Izsak           : Overlap fitted RIJCOSX, COSX-SCS-MP3, EOM     
  Riya Kayal             : Wick's Theorem for AUTO-CI, AUTO-CI UHF-CCSDT 
  Emily Kempfer          : AUTO-CI, RHF CISDT and CCSDT                  
  Christian Kollmar      : KDIIS, OOCD, Brueckner-CCSD(T), CCSD density, CASPT2, CASPT2-K, improved NEVPT2 
  Axel Koslowski         : Symmetry handling                             
  Simone Kossmann        : meta-GGA functionals, TD-DFT gradient, OOMP2, (MP2 Hessian; deprecated post 5.0) 
  Lucas Lang             : DCDCAS                                        
  Marvin Lechner         : AUTO-CI (C++ implementation), FIC-MRCC        
  Spencer Leger          : CASSCF response                               
  Dagmar Lenk            : GEPOL surface, SMD, ORCA-2-JSON               
  Dimitrios Liakos       : Extrapolation schemes; Compound Job, initial MDCI parallelization 
  Dimitrios Manganas     : Further ROCIS development; embedding schemes. LFT, Crystal Embedding 
  Dimitrios Pantazis     : SARC Basis sets                               
  Anastasios Papadopoulos: AUTO-CI, single reference methods and gradients 
  Taras Petrenko         : pre 6.0 DFT Hessian and TD-DFT gradient, (ASA, deprecated), ECA, 1-Electron XAS/XES, NRVS 
  Peter Pinski           : DLPNO-MP2, DLPNO-MP2 Gradient                 
  Christoph Reimann      : Effective Core Potentials                     
  Marius Retegan         : Local ZFS, SOC                                
  Christoph Riplinger    : Optimizer, TS searches, QM/MM, DLPNO-CCSD(T), (RO)-DLPNO pert. Triples 
  Michael Roemelt        : Original ROCIS implementation                 
  Masaaki Saitow         : Open-shell DLPNO-CCSD energy and density      
  Barbara Sandhoefer     : DKH picture change effects                    
  Kantharuban Sivalingam : CASSCF convergence/infrastructure, NEVPT2 and variants, FIC-MRCI 
  Bernardo de Souza      : ESD, SOC TD-DFT                               
  Georgi L. Stoychev     : AutoAux, RI-MP2 NMR, DLPNO-MP2 response, X2C  
  Van Anh Tran           : RI-MP2 g-tensors                              
  Willem Van den Heuvel  : Paramagnetic NMR                              
  Zikuan Wang            : NOTCH, Electric field optimization            
  Frank Wennmohs         : Technical directorship and infrastructure     
  Hang Xu                : AUTO-CI-Response properties                   
                                                                         
[FACCTs GmbH]                                                            
  Markus Bursch, Miquel Garcia-Rates, Christoph Riplinger, Bernardo de Souza, Georgi L. Stoychev 
                                                                 
  APM, Basis sets (HGBS, AHGBS, def-TZVP (Ac-Lr), def2-XVPD (La-Lu)), CI-OPT, improved COSX, DLPNO-Multilevel,           
  DOCKER, DRACO, updates on ESD, GOAT, IRC, LR-CPCM, MBIS, meta-GGA TD-DFT gradient, ML-optimized integration grids, 
  MM, NACMEs, nearIR, NEB, NEB-TS, NL-DFT gradient (VV10), 2- and 3-layer-ONIOM, interface openCOSMO-RS, QMMM,   
  Crystal-QMMM, SF, symmetry and pop. for TD-DFT, r2SCAN hybrids, SOLVATOR                                   
                                                                         
[Other institutions]                                                     
  V. Asgeirsson          : NEB                                           
  Christoph Bannwarth    : sTDA-DFT, sTD-DFT, PBEh-3c, B97-3c, D3        
  Sebastian Ehlert       : rSCAN, r2SCAN, r2SCAN-3c, D4, dhf basis sets  
  Marvin Friede          : D4 for Fr, Ra, Ac-Lr                          
  Lars Goerigk           : TD-DFT with DH, B97 family of functionals     
  Stefan Grimme          : VdW corrections, initial TS optimization, DFT functionals, gCP, sTDA/sTD-DF 
  Waldemar Hujo          : DFT-NL                                        
  H. Jonsson             : NEB                                           
  Holger Kruse           : gCP                                           
  Marcel Mueller         : wB97X-3c, vDZP basis set                      
  Hagen Neugebauer       : wr2SCAN                                       
  Tobias Risthaus        : range-separated hybrid DFT                    
  Lukas Wittmann         : regularized MP2, r2SCAN double-hybrids, wr2SCAN        
                                                                         
We gratefully acknowledge several colleagues who have allowed us to      
interface, adapt or use parts of their codes:                            
  Ed Valeev, F. Pavosevic, A. Kumar             : LibInt (2-el integral package), F12 methods 
  Garnet Chan, S. Sharma, J. Yang, R. Olivares  : DMRG                   
  Ulf Ekstrom                                   : XCFun DFT Library      
  Mihaly Kallay                                 : mrcc  (arbitrary order and MRCC methods)
  Frank Weinhold                                : gennbo (NPA and NBO analysis)           
  Simon Mueller                                 : openCOSMO-RS                            
  Christopher J. Cramer and Donald G. Truhlar   : smd solvation model                     
  S Lehtola, MJT Oliveira, MAL Marques          : LibXC Library                           
  Liviu Ungur et al                             : ANISO software                          


 Your calculation uses the libint2 library for the computation of 2-el integrals
 For citations please refer to: http://libint.valeyev.net

 Your ORCA version has been built with support for libXC version: 6.2.2
 For citations please refer to: https://libxc.gitlab.io

 This ORCA versions uses:
   CBLAS   interface :  Fast vector & matrix operations
   LAPACKE interface :  Fast linear algebra routines
   SCALAPACK package :  Parallel linear algebra routines
   Shared memory     :  Shared parallel matrices


Your calculation utilizes the atom-pairwise dispersion correction
with the Becke-Johnson damping scheme (D3BJ)


Warning: RI is on but no J-basis has been assigned. Assigning Def2/J (nothing to worry about!)
================================================================================

----- Orbital basis set information -----
Your calculation utilizes the basis: def2-SVP
   F. Weigend and R. Ahlrichs, Phys. Chem. Chem. Phys. 7, 3297 (2005).

The basis set includes element-specific modifications.

Your calculation utilizes the basis: def2-TZVP
   F. Weigend and R. Ahlrichs, Phys. Chem. Chem. Phys. 7, 3297 (2005).

----- AuxJ basis set information -----
Your calculation utilizes the auxiliary basis: def2/J
   F. Weigend, Phys. Chem. Chem. Phys. 8, 1057 (2006).

================================================================================
                                        WARNINGS
                       Please study these warnings very carefully!
================================================================================


================================================================================
                                       INPUT FILE
================================================================================
NAME = li_dmc_1_freq.inp.txt
|  1> # avogadro generated ORCA input file 
|  2> # Basic Mode
|  3> # 
|  4> ! B3LYP D3BJ def2-SVP TightSCF Freq
|  5> 
|  6> %basis
|  7>   NewGTO Li "def2-TZVP" end
|  8> end
|  9> 
| 10> * xyz 1 1
| 11>    C     -4.169465    1.291337   -0.031112
| 12>    O     -2.826472    0.786897   -0.126975
| 13>    H     -4.366533    2.007907   -0.841800
| 14>    H     -4.331576    1.760538    0.950228
| 15>    H     -4.818064    0.415535   -0.139602
| 16>    C     -1.822119    1.608008   -0.032041
| 17>    O     -0.685192    0.984212   -0.136718
| 18>    C      0.543267    1.726832   -0.057659
| 19>    H      0.618531    2.238663    0.912803
| 20>    H      0.605385    2.449641   -0.884354
| 21>    H      1.340824    0.982133   -0.151490
| 22>    O     -1.934215    2.835534    0.138456
| 23>    Li    -2.073181    4.528633    0.333263
| 24> *
| 25> 
| 26> 
| 27>                          ****END OF INPUT****
================================================================================

                       ****************************
                       * Single Point Calculation *
                       ****************************

---------------------------------
CARTESIAN COORDINATES (ANGSTROEM)
---------------------------------
  C     -4.169465    1.291337   -0.031112
  O     -2.826472    0.786897   -0.126975
  H     -4.366533    2.007907   -0.841800
  H     -4.331576    1.760538    0.950228
  H     -4.818064    0.415535   -0.139602
  C     -1.822119    1.608008   -0.032041
  O     -0.685192    0.984212   -0.136718
  C      0.543267    1.726832   -0.057659
  H      0.618531    2.238663    0.912803
  H      0.605385    2.449641   -0.884354
  H      1.340824    0.982133   -0.151490
  O     -1.934215    2.835534    0.138456
  Li    -2.073181    4.528633    0.333263

----------------------------
CARTESIAN COORDINATES (A.U.)
----------------------------
  NO LB      ZA    FRAG     MASS         X           Y           Z
   0 C     6.0000    0    12.011   -7.879147    2.440273   -0.058793
   1 O     8.0000    0    15.999   -5.341258    1.487020   -0.239948
   2 H     1.0000    0     1.008   -8.251552    3.794394   -1.590771
   3 H     1.0000    0     1.008   -8.185492    3.326935    1.795671
   4 H     1.0000    0     1.008   -9.104821    0.785247   -0.263810
   5 C     6.0000    0    12.011   -3.443306    3.038695   -0.060549
   6 O     8.0000    0    15.999   -1.294825    1.859891   -0.258360
   7 C     6.0000    0    12.011    1.026626    3.263240   -0.108960
   8 H     1.0000    0     1.008    1.168854    4.230460    1.724948
   9 H     1.0000    0     1.008    1.144012    4.629151   -1.671187
  10 H     1.0000    0     1.008    2.533790    1.855962   -0.286275
  11 O     8.0000    0    15.999   -3.655137    5.358383    0.261644
  12 Li    3.0000    0     6.941   -3.917744    8.557876    0.629776

--------------------------------
INTERNAL COORDINATES (ANGSTROEM)
--------------------------------
 C      0   0   0     0.000000000000     0.00000000     0.00000000
 O      1   0   0     1.437803751010     0.00000000     0.00000000
 H      1   2   0     1.099783339967   110.29276364     0.00000000
 H      1   2   3     1.099753495253   110.29563167   237.42230349
 H      1   2   3     1.095207690854   105.42659460   118.69675947
 C      2   1   3     1.300753891897   119.66177837    61.34959448
 O      6   2   1     1.301031024716   111.48162852   179.82027071
 C      7   6   2     1.437653054308   119.64457134   179.94026709
 H      8   7   6     1.099741849572   110.32924402    60.10628388
 H      8   7   6     1.099880047746   110.26653001   297.50997618
 H      8   7   6     1.095206841382   105.44507618   178.85678019
 O      6   2   1     1.244369246205   124.27444945   359.87137851
 Li    12   6   2     1.709925594933   178.56831396   248.31886030

---------------------------
INTERNAL COORDINATES (A.U.)
---------------------------
 C      0   0   0     0.000000000000     0.00000000     0.00000000
 O      1   0   0     2.717055323733     0.00000000     0.00000000
 H      1   2   0     2.078289319186   110.29276364     0.00000000
 H      1   2   3     2.078232920852   110.29563167   237.42230349
 H      1   2   3     2.069642595478   105.42659460   118.69675947
 C      2   1   3     2.458068623318   119.66177837    61.34959448
 O      6   2   1     2.458592328448   111.48162852   179.82027071
 C      7   6   2     2.716770548238   119.64457134   179.94026709
 H      8   7   6     2.078210913704   110.32924402    60.10628388
 H      8   7   6     2.078472070404   110.26653001   297.50997618
 H      8   7   6     2.069640990210   105.44507618   178.85678019
 O      6   2   1     2.351517084802   124.27444945   359.87137851
 Li    12   6   2     3.231291083805   178.56831396   248.31886030

---------------------
BASIS SET INFORMATION
---------------------
There are 4 groups of distinct atoms

 Group   1 Type C   : 7s4p1d contracted to 3s2p1d pattern {511/31/1}
 Group   2 Type O   : 7s4p1d contracted to 3s2p1d pattern {511/31/1}
 Group   3 Type H   : 4s1p contracted to 2s1p pattern {31/1}
 Group   4 Type Li  : 11s3p contracted to 5s3p pattern {62111/111}

Atom   0C    basis set group =>   1
Atom   1O    basis set group =>   2
Atom   2H    basis set group =>   3
Atom   3H    basis set group =>   3
Atom   4H    basis set group =>   3
Atom   5C    basis set group =>   1
Atom   6O    basis set group =>   2
Atom   7C    basis set group =>   1
Atom   8H    basis set group =>   3
Atom   9H    basis set group =>   3
Atom  10H    basis set group =>   3
Atom  11O    basis set group =>   2
Atom  12Li   basis set group =>   4
---------------------------------
AUXILIARY/J BASIS SET INFORMATION
---------------------------------
There are 4 groups of distinct atoms

 Group   1 Type C   : 12s5p4d2f1g contracted to 6s4p3d1f1g pattern {711111/2111/211/2/1}
 Group   2 Type O   : 12s5p4d2f1g contracted to 6s4p3d1f1g pattern {711111/2111/211/2/1}
 Group   3 Type H   : 5s2p1d contracted to 3s1p1d pattern {311/2/1}
 Group   4 Type Li  : 12s5p4d2f1g contracted to 6s4p3d1f1g pattern {711111/2111/211/2/1}

Atom   0C    basis set group =>   1
Atom   1O    basis set group =>   2
Atom   2H    basis set group =>   3
Atom   3H    basis set group =>   3
Atom   4H    basis set group =>   3
Atom   5C    basis set group =>   1
Atom   6O    basis set group =>   2
Atom   7C    basis set group =>   1
Atom   8H    basis set group =>   3
Atom   9H    basis set group =>   3
Atom  10H    basis set group =>   3
Atom  11O    basis set group =>   2
Atom  12Li   basis set group =>   4
------------------------------------------------------------------------------
                             ORCA STARTUP CALCULATIONS
                           -- RI-GTO INTEGRALS CHOSEN --
------------------------------------------------------------------------------
------------------------------------------------------------------------------
                   ___                                                        
                  /   \      - P O W E R E D   B Y -                         
                 /     \                                                     
                 |  |  |   _    _      __       _____    __    __             
                 |  |  |  | |  | |    /  \     |  _  \  |  |  /  |          
                  \  \/   | |  | |   /    \    | | | |  |  | /  /          
                 / \  \   | |__| |  /  /\  \   | |_| |  |  |/  /          
                |  |  |   |  __  | /  /__\  \  |    /   |      \           
                |  |  |   | |  | | |   __   |  |    \   |  |\   \          
                \     /   | |  | | |  |  |  |  | |\  \  |  | \   \       
                 \___/    |_|  |_| |__|  |__|  |_| \__\ |__|  \__/        
                                                                              
                      - O R C A' S   B I G   F R I E N D -                    
                                      &                                       
                       - I N T E G R A L  F E E D E R -                       
                                                                              
 v1 FN, 2020, v2 2021, v3 2022-2024                                           
------------------------------------------------------------------------------


----------------------
SHARK INTEGRAL PACKAGE
----------------------

Number of atoms                             ...     13
Number of basis functions                   ...    128
Number of shells                            ...     62
Maximum angular momentum                    ...      2
Integral batch strategy                     ... SHARK/LIBINT Hybrid
RI-J (if used) integral strategy            ... SPLIT-RIJ (Revised 2003 algorithm where possible)
Printlevel                                  ...      1
Contraction scheme used                     ... SEGMENTED contraction
Prescreening option                         ... SCHWARTZ
   Thresh                                   ... 2.500e-11
   Tcut                                     ... 2.500e-12
   Tpresel                                  ... 2.500e-12 
Coulomb Range Separation                    ... NOT USED
Exchange Range Separation                   ... NOT USED
Multipole approximations                    ... NOT USED
Finite Nucleus Model                        ... NOT USED
CABS basis                                  ... NOT available
Auxiliary Coulomb fitting basis             ... AVAILABLE
   # of basis functions in Aux-J            ...    409
   # of shells in Aux-J                     ...    135
   Maximum angular momentum in Aux-J        ...      4
Auxiliary J/K fitting basis                 ... NOT available
Auxiliary Correlation fitting basis         ... NOT available
Auxiliary 'external' fitting basis          ... NOT available

Checking pre-screening integrals            ... done (  0.0 sec) Dimension = 62
Check shell pair data                       ... done (  0.0 sec)
Shell pair information
Shell pair cut-off parameter TPreSel        ...   2.5e-12
Total number of shell pairs                 ...      1953
Shell pairs after pre-screening             ...      1812
Total number of primitive shell pairs       ...      6898
Primitive shell pairs kept                  ...      4754
          la=0 lb=0:    586 shell pairs
          la=1 lb=0:    680 shell pairs
          la=1 lb=1:    213 shell pairs
          la=2 lb=0:    196 shell pairs
          la=2 lb=1:    116 shell pairs
          la=2 lb=2:     21 shell pairs

Calculating one electron integrals          ... done (  0.0 sec)
Calculating RI/J V-Matrix + Cholesky decomp.... done (  0.0 sec)
Calculating Nuclear repulsion               ... done (  0.0 sec) ENN=    275.952755350708 Eh

Diagonalization of the overlap matrix:
Smallest eigenvalue                        ... 8.873e-03
Time for diagonalization                   ...    0.009 sec
Threshold for overlap eigenvalues          ... 1.000e-07
Number of eigenvalues below threshold      ... 0
Time for construction of square roots      ...    0.001 sec
Total time needed                          ...    0.010 sec

-------------------
DFT GRID GENERATION
-------------------

General Integration Accuracy     IntAcc      ... 4.388
Radial Grid Type                 RadialGrid  ... OptM3 with GC (2021)
Angular Grid (max. ang.)         AngularGrid ... 4 (Lebedev-302)
Angular grid pruning method      GridPruning ... 4 (adaptive)
Weight generation scheme         WeightScheme... mBecke (2022)
Basis function cutoff            BFCut       ... 1.0000e-11
Integration weight cutoff        WCut        ... 1.0000e-14
Partially contracted basis set               ... off
Rotationally invariant grid construction     ... off
Angular grids for H and He will be reduced by one unit

Total number of grid points                  ...    61651
Total number of batches                      ...      971
Average number of points per batch           ...       63
Average number of grid points per atom       ...     4742

--------------------
COSX GRID GENERATION
--------------------

GRIDX 1
-------
General Integration Accuracy     IntAcc      ... 3.816
Radial Grid Type                 RadialGrid  ... OptM3 with GC (2021)
Angular Grid (max. ang.)         AngularGrid ... 1 (Lebedev-50)
Angular grid pruning method      GridPruning ... 4 (adaptive)
Weight generation scheme         WeightScheme... mBecke (2022)
Basis function cutoff            BFCut       ... 1.0000e-11
Integration weight cutoff        WCut        ... 1.0000e-14
Partially contracted basis set               ... on
Rotationally invariant grid construction     ... off
Angular grids for H and He will be reduced by one unit

Total number of grid points                  ...     7882
Total number of batches                      ...       70
Average number of points per batch           ...      112
Average number of grid points per atom       ...      606
UseSFitting                                  ... on

GRIDX 2
-------
General Integration Accuracy     IntAcc      ... 4.020
Radial Grid Type                 RadialGrid  ... OptM3 with GC (2021)
Angular Grid (max. ang.)         AngularGrid ... 2 (Lebedev-110)
Angular grid pruning method      GridPruning ... 4 (adaptive)
Weight generation scheme         WeightScheme... mBecke (2022)
Basis function cutoff            BFCut       ... 1.0000e-11
Integration weight cutoff        WCut        ... 1.0000e-14
Partially contracted basis set               ... on
Rotationally invariant grid construction     ... off
Angular grids for H and He will be reduced by one unit

Total number of grid points                  ...    17328
Total number of batches                      ...      142
Average number of points per batch           ...      122
Average number of grid points per atom       ...     1333
UseSFitting                                  ... on

GRIDX 3
-------
General Integration Accuracy     IntAcc      ... 4.338
Radial Grid Type                 RadialGrid  ... OptM3 with GC (2021)
Angular Grid (max. ang.)         AngularGrid ... 3 (Lebedev-194)
Angular grid pruning method      GridPruning ... 4 (adaptive)
Weight generation scheme         WeightScheme... mBecke (2022)
Basis function cutoff            BFCut       ... 1.0000e-11
Integration weight cutoff        WCut        ... 1.0000e-14
Partially contracted basis set               ... on
Rotationally invariant grid construction     ... off
Angular grids for H and He will be reduced by one unit

Total number of grid points                  ...    38208
Total number of batches                      ...      305
Average number of points per batch           ...      125
Average number of grid points per atom       ...     2939
UseSFitting                                  ... on
Initializing property integral containers    ... done (  0.0 sec)

SHARK setup successfully completed in   0.9 seconds

Maximum memory used throughout the entire STARTUP-calculation: 24.9 MB
-------------------------------------------------------------------------------
                                 ORCA GUESS
                   Start orbitals & Density for SCF / CASSCF
-------------------------------------------------------------------------------

------------
SCF SETTINGS
------------
Hamiltonian:
 Density Functional     Method          .... DFT(GTOs)
 Exchange Functional    Exchange        .... B88
   X-Alpha parameter    XAlpha          ....  0.666667
   Becke's b parameter  XBeta           ....  0.004200
 Correlation Functional Correlation     .... LYP
 LDA part of GGA corr.  LDAOpt          .... VWN-5
 Gradients option       PostSCFGGA      .... off
 Hybrid DFT is turned on
   Fraction HF Exchange ScalHFX         ....  0.200000
   Scaling of DF-GGA-X  ScalDFX         ....  0.720000
   Scaling of DF-GGA-C  ScalDFC         ....  0.810000
   Scaling of DF-LDA-C  ScalLDAC        ....  1.000000
   Perturbative correction              ....  0.000000
   NL short-range parameter             ....  4.800000
 RI-approximation to the Coulomb term is turned on
   Number of AuxJ basis functions       .... 409
   RIJ-COSX (HFX calculated with COS-X)).... on


General Settings:
 Integral files         IntName         .... li_dmc_1_freq.inp
 Hartree-Fock type      HFTyp           .... RHF
 Total Charge           Charge          ....    1
 Multiplicity           Mult            ....    1
 Number of Electrons    NEL             ....   50
 Basis Dimension        Dim             ....  128
 Nuclear Repulsion      ENuc            ....    275.9527553507 Eh

Convergence Acceleration:
 AO-DIIS                CNVDIIS         .... on
   Start iteration      DIISMaxIt       ....    12
   Startup error        DIISStart       ....  0.200000
   # of expansion vecs  DIISMaxEq       ....     5
   Bias factor          DIISBfac        ....   1.050
   Max. coefficient     DIISMaxC        ....  10.000
 MO-DIIS                CNVKDIIS        .... off
 Trust-Rad. Augm. Hess. CNVTRAH         .... auto
   Auto Start mean grad. ratio tolernc. ....  1.125000
   Auto Start start iteration           ....    50
   Auto Start num. interpolation iter.  ....    10
   Max. Number of Micro iterations      ....    24
   Max. Number of Macro iterations      .... Maxiter - #DIIS iter
   Number of Davidson start vectors     ....     2
   Converg. threshold    (grad. norm)   ....   1.000e-05
   Grad. Scal. Fac. for Micro threshold ....   0.100
   Minimum threshold for Micro iter.    ....   1.000e-02
   NR start threshold (gradient norm)   ....   1.000e-04
   Initial trust radius                 ....   0.400
   Minimum AH scaling param. (alpha)    ....   1.000
   Maximum AH scaling param. (alpha)    .... 1000.000
   Quad. conv. algorithm                .... NR
   White noise on init. David. guess    .... on
   Maximum white noise                  ....   0.010
   Pseudo random numbers                .... off
   Inactive MOs                         .... canonical
   Orbital update algorithm             .... Taylor
   Preconditioner                       .... Diag
   Full preconditioner red. dimension   ....   250
 SOSCF                  CNVSOSCF        .... on
   Start iteration      SOSCFMaxIt      ....   150
   Startup grad/error   SOSCFStart      ....  0.003300
   Hessian update       SOSCFHessUp     .... L-BFGS
 Level Shifting         CNVShift        .... on
   Level shift para.    LevelShift      ....    0.2500
   Turn off err/grad.   ShiftErr        ....    0.0010
 Zerner damping         CNVZerner       .... off
 Static damping         CNVDamp         .... on
   Fraction old density DampFac         ....    0.7000
   Max. Damping (<1)    DampMax         ....    0.9800
   Min. Damping (>=0)   DampMin         ....    0.0000
   Turn off err/grad.   DampErr         ....    0.1000

SCF Procedure:
 Maximum # iterations   MaxIter         ....   125
 SCF integral mode      SCFMode         .... Direct
   Integral package                     .... SHARK and LIBINT hybrid scheme
 Reset frequency        DirectResetFreq ....    20
 Integral Threshold     Thresh          ....  2.500e-11 Eh
 Primitive CutOff       TCut            ....  2.500e-12 Eh

Convergence Tolerance:
 Convergence Check Mode ConvCheckMode   .... Total+1el-Energy
 Convergence forced     ConvForced      .... 0
 Energy Change          TolE            ....  1.000e-08 Eh
 1-El. energy change                    ....  1.000e-05 Eh
 Orbital Gradient       TolG            ....  1.000e-05
 Orbital Rotation angle TolX            ....  1.000e-05
 DIIS Error             TolErr          ....  5.000e-07

------------------------------
INITIAL GUESS: MODEL POTENTIAL
------------------------------
Loading Hartree-Fock densities                     ... done
Calculating cut-offs                               ... done
Initializing the effective Hamiltonian             ... done
Setting up the integral package (SHARK)            ... done
Starting the Coulomb interaction                   ... done (   0.0 sec)
Making the grid                                    ... done (   0.1 sec)
Mapping shells                                     ... done
Starting the XC term evaluation                    ... done (   0.1 sec)
  promolecular density results
     # of electrons  =     50.996517337
     EX              =    -43.605339422
     EC              =     -1.732797862
     EX+EC           =    -45.338137285
Transforming the Hamiltonian                       ... done (   0.0 sec)
Diagonalizing the Hamiltonian                      ... done (   0.0 sec)
Back transforming the eigenvectors                 ... done (   0.0 sec)
Now organizing SCF variables                       ... done
                      ------------------
                      INITIAL GUESS DONE (   0.3 sec)
                      ------------------
             **** ENERGY FILE WAS UPDATED (li_dmc_1_freq.inp.en.tmp) ****
Finished Guess after   0.3 sec
Maximum memory used throughout the entire GUESS-calculation: 12.6 MB

-------------------------------------------------------------------------------------------
                                      ORCA LEAN-SCF
                              memory conserving SCF solver
-------------------------------------------------------------------------------------------

----------------------------------------D-I-I-S--------------------------------------------
Iteration    Energy (Eh)           Delta-E    RMSDP     MaxDP     DIISErr   Damp  Time(sec)
-------------------------------------------------------------------------------------------
               ***  Starting incremental Fock matrix formation  ***
    1    -350.3414686792353905     0.00e+00  3.70e-03  1.03e-01  3.03e-01  0.700   1.9
    2    -350.4348404485522224    -9.34e-02  2.07e-03  5.76e-02  1.20e-01  0.700   1.1
                               ***Turning on AO-DIIS***
    3    -350.4667490180737559    -3.19e-02  6.74e-04  1.10e-02  2.61e-02  0.700   1.0
    4    -350.4873595017973003    -2.06e-02  1.10e-03  1.70e-02  1.33e-02  0.000   2.0
    5    -350.5342098798874986    -4.69e-02  2.06e-04  3.78e-03  3.74e-03  0.000   1.1
                              *** Initializing SOSCF ***
---------------------------------------S-O-S-C-F--------------------------------------
Iteration    Energy (Eh)           Delta-E    RMSDP     MaxDP     MaxGrad    Time(sec)
--------------------------------------------------------------------------------------
    6    -350.5343438235988742    -1.34e-04  8.18e-05  1.28e-03  1.28e-03     1.1
               *** Restarting incremental Fock matrix formation ***
    7    -350.5343616633971351    -1.78e-05  7.22e-05  2.07e-03  4.59e-04     1.9
    8    -350.5343543332930949     7.33e-06  4.64e-05  1.34e-03  9.35e-04     1.6
    9    -350.5343657194107436    -1.14e-05  7.52e-06  2.10e-04  4.69e-05     1.5
   10    -350.5343656945866542     2.48e-08  3.99e-06  1.29e-04  6.33e-05     1.4
   11    -350.5343657596235971    -6.50e-08  1.19e-06  2.35e-05  8.58e-06     1.3
   12    -350.5343657598364189    -2.13e-10  6.24e-07  1.16e-05  7.86e-06     1.1
                 **** Energy Check signals convergence ****

               *****************************************************
               *                     SUCCESS                       *
               *           SCF CONVERGED AFTER  12 CYCLES          *
               *****************************************************

Recomputing exchange energy using gridx3       ... done (    3.211 sec)
Old exchange energy                            :     -8.794623646 Eh
New exchange energy                            :     -8.794628142 Eh
Exchange energy change after final integration :     -0.000004495 Eh
Total energy after final integration           :   -350.534370255 Eh
             **** ENERGY FILE WAS UPDATED (li_dmc_1_freq.inp.en.tmp) ****

----------------
TOTAL SCF ENERGY
----------------

Total Energy       :       -350.53437025533265 Eh           -9538.52514 eV

Components:
Nuclear Repulsion  :        275.95275535070766 Eh            7509.05623 eV
Electronic Energy  :       -626.48712111054408 Eh          -17047.58125 eV
One Electron Energy:      -1016.86378862375886 Eh          -27670.27042 eV
Two Electron Energy:        390.37666751321478 Eh           10622.68917 eV

Virial components:
Potential Energy   :       -698.16610657312822 Eh          -18998.06560 eV
Kinetic Energy     :        347.63173631779551 Eh            9459.54046 eV
Virial Ratio       :          2.00834973805408

DFT components:
N(Alpha)           :       24.999985247278 electrons
N(Beta)            :       24.999985247278 electrons
N(Total)           :       49.999970494557 electrons
E(X)               :      -34.979185462836 Eh       
E(C)               :       -2.022950943504 Eh       
E(XC)              :      -37.002136406340 Eh       

---------------
SCF CONVERGENCE
---------------

  Last Energy change         ...    2.1282e-10  Tolerance :   1.0000e-08
  Last MAX-Density change    ...    1.1628e-05  Tolerance :   1.0000e-07
  Last RMS-Density change    ...    6.2378e-07  Tolerance :   5.0000e-09
  Last DIIS Error            ...    1.2811e-03  Tolerance :   5.0000e-07
  Last Orbital Gradient      ...    7.8603e-06  Tolerance :   1.0000e-05
  Last Orbital Rotation      ...    5.9483e-06  Tolerance :   1.0000e-05


----------------
ORBITAL ENERGIES
----------------

  NO   OCC          E(Eh)            E(eV) 
   0   2.0000     -19.348560      -526.5011 
   1   2.0000     -19.348482      -526.4990 
   2   2.0000     -19.319642      -525.7142 
   3   2.0000     -10.547274      -287.0059 
   4   2.0000     -10.395993      -282.8894 
   5   2.0000     -10.395616      -282.8791 
   6   2.0000      -2.218151       -60.3590 
   7   2.0000      -1.314088       -35.7582 
   8   2.0000      -1.220139       -33.2017 
   9   2.0000      -1.188741       -32.3473 
  10   2.0000      -0.919887       -25.0314 
  11   2.0000      -0.851113       -23.1600 
  12   2.0000      -0.737044       -20.0560 
  13   2.0000      -0.711098       -19.3500 
  14   2.0000      -0.706480       -19.2243 
  15   2.0000      -0.681997       -18.5581 
  16   2.0000      -0.613423       -16.6921 
  17   2.0000      -0.608321       -16.5532 
  18   2.0000      -0.594345       -16.1730 
  19   2.0000      -0.567123       -15.4322 
  20   2.0000      -0.532516       -14.4905 
  21   2.0000      -0.513585       -13.9754 
  22   2.0000      -0.496674       -13.5152 
  23   2.0000      -0.486994       -13.2518 
  24   2.0000      -0.469513       -12.7761 
  25   0.0000      -0.195909        -5.3310 
  26   0.0000      -0.155850        -4.2409 
  27   0.0000      -0.129347        -3.5197 
  28   0.0000      -0.118150        -3.2150 
  29   0.0000      -0.101186        -2.7534 
  30   0.0000      -0.054091        -1.4719 
  31   0.0000      -0.039443        -1.0733 
  32   0.0000      -0.023076        -0.6279 
  33   0.0000      -0.010183        -0.2771 
  34   0.0000      -0.008629        -0.2348 
  35   0.0000      -0.004816        -0.1311 
*Only the first 10 virtual orbitals were printed.

                    ********************************
                    * MULLIKEN POPULATION ANALYSIS *
                    ********************************

-----------------------
MULLIKEN ATOMIC CHARGES
-----------------------
   0 C :    0.153481
   1 O :   -0.225813
   2 H :    0.054873
   3 H :    0.056190
   4 H :    0.090472
   5 C :    0.405775
   6 O :   -0.225993
   7 C :    0.153142
   8 H :    0.055178
   9 H :    0.055596
  10 H :    0.090453
  11 O :   -0.471920
  12 Li:    0.808566
Sum of atomic charges:    1.0000000

--------------------------------
MULLIKEN REDUCED ORBITAL CHARGES
--------------------------------
  0 C s       :     3.034590  s :     3.034590
      pz      :     1.034012  p :     2.762963
      px      :     0.698237
      py      :     1.030713
      dz2     :     0.009267  d :     0.048966
      dxz     :     0.006877
      dyz     :     0.008053
      dx2y2   :     0.011867
      dxy     :     0.012902

  1 O s       :     3.724218  s :     3.724218
      pz      :     1.712355  p :     4.483889
      px      :     1.184714
      py      :     1.586819
      dz2     :     0.002389  d :     0.017706
      dxz     :     0.002537
      dyz     :     0.002579
      dx2y2   :     0.002441
      dxy     :     0.007761

  2 H s       :     0.922560  s :     0.922560
      pz      :     0.010454  p :     0.022567
      px      :     0.003069
      py      :     0.009044

  3 H s       :     0.921240  s :     0.921240
      pz      :     0.013041  p :     0.022570
      px      :     0.002897
      py      :     0.006632

  4 H s       :     0.887447  s :     0.887447
      pz      :     0.004869  p :     0.022081
      px      :     0.006031
      py      :     0.011181

  5 C s       :     2.958295  s :     2.958295
      pz      :     0.799161  p :     2.458134
      px      :     0.791478
      py      :     0.867494
      dz2     :     0.010712  d :     0.177797
      dxz     :     0.025326
      dyz     :     0.030246
      dx2y2   :     0.047881
      dxy     :     0.063632

  6 O s       :     3.724359  s :     3.724359
      pz      :     1.712675  p :     4.483932
      px      :     1.159572
      py      :     1.611685
      dz2     :     0.002392  d :     0.017702
      dxz     :     0.002821
      dyz     :     0.002287
      dx2y2   :     0.002583
      dxy     :     0.007618

  7 C s       :     3.034443  s :     3.034443
      pz      :     1.033614  p :     2.763414
      px      :     0.764096
      py      :     0.965705
      dz2     :     0.009200  d :     0.049001
      dxz     :     0.005315
      dyz     :     0.009700
      dx2y2   :     0.008944
      dxy     :     0.015842

  8 H s       :     0.922251  s :     0.922251
      pz      :     0.012847  p :     0.022571
      px      :     0.003002
      py      :     0.006723

  9 H s       :     0.921847  s :     0.921847
      pz      :     0.010693  p :     0.022557
      px      :     0.002948
      py      :     0.008916

 10 H s       :     0.887462  s :     0.887462
      pz      :     0.004848  p :     0.022085
      px      :     0.008495
      py      :     0.008742

 11 O s       :     3.747355  s :     3.747355
      pz      :     1.614786  p :     4.713246
      px      :     1.808880
      py      :     1.289579
      dz2     :     0.001382  d :     0.011320
      dxz     :     0.000110
      dyz     :     0.003434
      dx2y2   :     0.004074
      dxy     :     0.002320

 12 Lis       :     2.043854  s :     2.043854
      pz      :     0.035352  p :     0.147580
      px      :     0.043883
      py      :     0.068346



                     *******************************
                     * LOEWDIN POPULATION ANALYSIS *
                     *******************************

----------------------
LOEWDIN ATOMIC CHARGES
----------------------
   0 C :    0.113255
   1 O :   -0.023230
   2 H :    0.033411
   3 H :    0.033799
   4 H :    0.053263
   5 C :    0.158314
   6 O :   -0.023465
   7 C :    0.113194
   8 H :    0.033463
   9 H :    0.033688
  10 H :    0.053328
  11 O :   -0.234124
  12 Li:    0.655103

-------------------------------
LOEWDIN REDUCED ORBITAL CHARGES
-------------------------------
  0 C s       :     2.852978  s :     2.852978
      pz      :     1.084062  p :     2.923261
      px      :     0.773597
      py      :     1.065603
      dz2     :     0.020867  d :     0.110505
      dxz     :     0.014907
      dyz     :     0.020675
      dx2y2   :     0.023945
      dxy     :     0.030111

  1 O s       :     3.427144  s :     3.427144
      pz      :     1.683909  p :     4.562827
      px      :     1.251559
      py      :     1.627359
      dz2     :     0.004411  d :     0.033259
      dxz     :     0.004570
      dyz     :     0.002710
      dx2y2   :     0.005451
      dxy     :     0.016117

  2 H s       :     0.901364  s :     0.901364
      pz      :     0.029805  p :     0.065224
      px      :     0.009527
      py      :     0.025892

  3 H s       :     0.900928  s :     0.900928
      pz      :     0.038295  p :     0.065273
      px      :     0.009045
      py      :     0.017932

  4 H s       :     0.881670  s :     0.881670
      pz      :     0.012234  p :     0.065067
      px      :     0.019571
      py      :     0.033262

  5 C s       :     2.774238  s :     2.774238
      pz      :     0.808965  p :     2.689635
      px      :     0.903536
      py      :     0.977133
      dz2     :     0.022792  d :     0.377813
      dxz     :     0.047579
      dyz     :     0.059170
      dx2y2   :     0.103747
      dxy     :     0.144525

  6 O s       :     3.427258  s :     3.427258
      pz      :     1.684294  p :     4.562957
      px      :     1.237741
      py      :     1.640921
      dz2     :     0.004406  d :     0.033251
      dxz     :     0.004927
      dyz     :     0.002355
      dx2y2   :     0.006069
      dxy     :     0.015494

  7 C s       :     2.852844  s :     2.852844
      pz      :     1.084071  p :     2.923394
      px      :     0.825012
      py      :     1.014310
      dz2     :     0.020653  d :     0.110568
      dxz     :     0.010717
      dyz     :     0.025140
      dx2y2   :     0.017668
      dxy     :     0.036390

  8 H s       :     0.901244  s :     0.901244
      pz      :     0.037684  p :     0.065294
      px      :     0.009043
      py      :     0.018567

  9 H s       :     0.901123  s :     0.901123
      pz      :     0.030546  p :     0.065188
      px      :     0.008910
      py      :     0.025733

 10 H s       :     0.881602  s :     0.881602
      pz      :     0.012150  p :     0.065070
      px      :     0.026742
      py      :     0.026178

 11 O s       :     3.470154  s :     3.470154
      pz      :     1.582970  p :     4.741164
      px      :     1.761530
      py      :     1.396664
      dz2     :     0.003289  d :     0.022806
      dxz     :     0.000148
      dyz     :     0.005093
      dx2y2   :     0.009917
      dxy     :     0.004359

 12 Lis       :     2.085329  s :     2.085329
      pz      :     0.049151  p :     0.259568
      px      :     0.059403
      py      :     0.151014



                      *****************************
                      * MAYER POPULATION ANALYSIS *
                      *****************************

  NA   - Mulliken gross atomic population
  ZA   - Total nuclear charge
  QA   - Mulliken gross atomic charge
  VA   - Mayer's total valence
  BVA  - Mayer's bonded valence
  FA   - Mayer's free valence

  ATOM       NA         ZA         QA         VA         BVA        FA
  0 C      5.8465     6.0000     0.1535     3.8697     3.8697    -0.0000
  1 O      8.2258     8.0000    -0.2258     2.3040     2.3040     0.0000
  2 H      0.9451     1.0000     0.0549     0.9900     0.9900    -0.0000
  3 H      0.9438     1.0000     0.0562     0.9898     0.9898    -0.0000
  4 H      0.9095     1.0000     0.0905     0.9920     0.9920    -0.0000
  5 C      5.5942     6.0000     0.4058     4.2909     4.2909    -0.0000
  6 O      8.2260     8.0000    -0.2260     2.3036     2.3036    -0.0000
  7 C      5.8469     6.0000     0.1531     3.8706     3.8706    -0.0000
  8 H      0.9448     1.0000     0.0552     0.9901     0.9901     0.0000
  9 H      0.9444     1.0000     0.0556     0.9896     0.9896    -0.0000
 10 H      0.9095     1.0000     0.0905     0.9922     0.9922    -0.0000
 11 O      8.4719     8.0000    -0.4719     2.0030     2.0030    -0.0000
 12 Li     2.1914     3.0000     0.8086     0.3726     0.3726    -0.0000

  Mayer bond orders larger than 0.100000
B(  0-C ,  1-O ) :   0.8766 B(  0-C ,  2-H ) :   0.9743 B(  0-C ,  3-H ) :   0.9743 
B(  0-C ,  4-H ) :   0.9759 B(  1-O ,  5-C ) :   1.3299 B(  5-C ,  6-O ) :   1.3289 
B(  5-C , 11-O ) :   1.5265 B(  6-O ,  7-C ) :   0.8773 B(  7-C ,  8-H ) :   0.9741 
B(  7-C ,  9-H ) :   0.9744 B(  7-C , 10-H ) :   0.9758 B( 11-O , 12-Li) :   0.3107 


-------
TIMINGS
-------

Total SCF time: 0 days 0 hours 0 min 20 sec 

Total time                  ....      20.258 sec
Sum of individual times     ....      20.246 sec  ( 99.9%)

SCF preparation             ....       0.043 sec  (  0.2%)
Fock matrix formation       ....      20.147 sec  ( 99.5%)
  Startup                   ....       0.002 sec  (  0.0% of F)
  Split-RI-J                ....       1.370 sec  (  6.8% of F)
  Chain of spheres X        ....      15.251 sec  ( 75.7% of F)
  XC integration            ....       3.505 sec  ( 17.4% of F)
    XC Preparation          ....       0.000 sec  (  0.0% of XC)
    Basis function eval.    ....       1.579 sec  ( 45.0% of XC)
    Density eval.           ....       0.589 sec  ( 16.8% of XC)
    XC-Functional eval.     ....       0.201 sec  (  5.7% of XC)
    XC-Potential eval.      ....       0.945 sec  ( 27.0% of XC)
Diagonalization             ....       0.000 sec  (  0.0%)
Density matrix formation    ....       0.006 sec  (  0.0%)
Total Energy calculation    ....       0.006 sec  (  0.0%)
Population analysis         ....       0.006 sec  (  0.0%)
Orbital Transformation      ....       0.005 sec  (  0.0%)
Orbital Orthonormalization  ....       0.000 sec  (  0.0%)
DIIS solution               ....       0.023 sec  (  0.1%)
SOSCF solution              ....       0.012 sec  (  0.1%)
Finished LeanSCF after  20.3 sec

Maximum memory used throughout the entire LEANSCF-calculation: 13.6 MB

------------------------------------------------------------------------------
                         ORCA PROPERTY INTEGRAL CALCULATIONS
------------------------------------------------------------------------------

GBWName                                   ... li_dmc_1_freq.inp.gbw
Number of atoms                           ...     13
Number of basis functions                 ...    128
Max core memory                           ...   1024 MB

Dipole integrals                          ... YES
Quadrupole integrals                      ...  NO
Linear momentum integrals                 ...  NO
Angular momentum integrals                ...  NO
Higher moments length integrals           ...  NO
Higher moments velocity integrals         ...  NO
Kinetic energy integrals                  ...  NO
GIAO right hand sides                     ...  NO
GIAO dipole derivative integrals          ...  NO
SOC integrals                             ...  NO
EPR diamagnetic integrals (GIAO)          ...  NO
EPR gauge integrals                       ...  NO
Field gradient integrals                  ...  NO (   0 nuclei)
Spin-dipole/Fermi contact integrals       ...  NO (   0 nuclei)
Contact density integrals                 ...  NO (   0 nuclei)
Nucleus-orbit integrals                   ...  NO (   0 nuclei)
Geometric perturbations                   ... YES (  13 nuclei)

Choice of electric origin   ... Center of mass
Position of electric origin ... ( -3.4670,  3.3236, -0.0253) 
Choice of magnetic origin   ... GIAO
Position of magnetic origin ... (  0.0000,  0.0000,  0.0000) 

Calculating integrals                     ... Electric Dipole (Length)     done (  0.0 sec)
Calculating integrals                     ... Geometrical perturbation right hand sides

-----------------------
GEOMETRIC PERTURBATIONS (13 nuclei)
-----------------------

MaxCore                            ...   1024 MB
Number of batches                  ...      1

BATCH   0: Atoms    0 -   12 ( 39 perturbations)
   => H(core) and overlap derivative integrals     ... done (     0.1 sec)
   => Making and storing internal U-coefficients   ... done (     0.0 sec)
   => RI-J derivative integrals                    ... done (     0.9 sec)
   => RI-J response operators                      ... done (     0.4 sec)
   => Chain of spheres derivative integrals        ... done (     7.1 sec)
   => Chain of spheres response operator           ... done (     4.2 sec)
   => XC derivative integrals                      ... done (    26.4 sec)
   => XC response operators                        ... done (     6.2 sec)
   => Completing and storing right hand sides      ... done (     0.0 sec)
   => Total time for right hand sides =  45.5 sec

  geometrical perturbations done ( 45.5 sec)

Property integrals calculated in  45.5 sec

Maximum memory used throughout the entire PROPINT-calculation: 75.5 MB


-------------------------------------------------------------------------------
                          DFT DISPERSION CORRECTION                            
                                                                               
                              DFTD3 V3.1  Rev 1                                
                          USING Becke-Johnson damping                          
-------------------------------------------------------------------------------
The B3LYP functional is recognized
Active option DFTDOPT                   ...         4   

molecular C6(AA) [au] = 1740.207502 


            DFT-D V3
 parameters
 s6 scaling factor         :     1.0000 
 a1 scaling factor         :     0.3981 
 s8 scaling factor         :     1.9889 
 a2 scaling factor         :     4.4211 
 ad hoc parameters k1-k3   :    16.0000     1.3333    -4.0000 

 Edisp/kcal,au: -9.456997689772  -0.015070683507 
 E6   /kcal   :  -4.419057583 
 E8   /kcal   :  -5.037940107 
 % E8         :  53.272087740 

-------------------------   ----------------
Dispersion correction           -0.015070684
-------------------------   ----------------


-------------------------   --------------------
FINAL SINGLE POINT ENERGY      -350.549440938839
-------------------------   --------------------

------------------------------------------------------------------------------
                            ORCA SCF RESPONSE CALCULATION
------------------------------------------------------------------------------

GBWName                                 ... li_dmc_1_freq.inp.gbw
Number of atoms                         ...     13
Number of basis functions               ...    128
Max core memory                         ...   1024 MB

Electric field perturbation             ...  NO
Quadrupolar field perturbation          ...  NO
Magnetic field perturbation (no GIAO)   ...  NO
Magnetic field perturbation (with GIAO) ...  NO
Linear momentum (velocity) perturbation ...  NO
Spin-orbit coupling perturbation        ...  NO
Choice of electric origin               ... Center of mass
Position of electric origin             ...    -3.467014     3.323576    -0.025263
Choice of magnetic origin               ... GIAO
Position of magnetic origin             ...     0.000000     0.000000     0.000000
Nuclear geometric perturbations         ... YES (  39 perturbations)
Nucleus-orbit perturbations             ...  NO (   0 perturbations)
Spin-dipole/Fermi contact perturbations ...  NO (   0 perturbations)

Total number of real perturbations      ...     39
Total number of imaginary perturbations ...      0
Total number of triplet perturbations   ...      0
Total number of SOC perturbations       ...      0


                                **********************
                                * REAL PERTURBATIONS *
                                **********************



-------------------
SHARK CP-SCF DRIVER
-------------------

Dimension of the orbital basis          ...    128
Dimension of the CPSCF-problem          ...   2575
Number of operators                     ...      1
Max. number of iterations               ...    128
Convergence Tolerance                   ... 1.0e-04
Number of perturbations                 ...     39
Perturbation type                       ... REAL

----------------------------
POPLE LINEAR EQUATION SOLVER
----------------------------

  ITERATION   0:   ||err||_max =   3.8941e-01 (   2.7 sec   0/ 39 done)
  ITERATION   1:   ||err||_max =   3.8432e-02 (   3.0 sec   0/ 39 done)
  ITERATION   2:   ||err||_max =   9.8875e-03 (   3.2 sec   0/ 39 done)
  ITERATION   3:   ||err||_max =   2.9919e-03 (   3.3 sec   0/ 39 done)
  ITERATION   4:   ||err||_max =   1.1008e-03 (   3.1 sec   4/ 39 done)
  ITERATION   5:   ||err||_max =   2.6590e-04 (   2.9 sec  26/ 39 done)
  ITERATION   6:   ||err||_max =   1.0595e-04 (   1.7 sec  38/ 39 done)
  ITERATION   7:   ||err||_max =   1.8575e-05 (   0.6 sec  39/ 39 done)

CP-SCF equations solved in  20.5 sec
Response densities calculated in   0.0 sec

Maximum memory used throughout the entire SCFRESP-calculation: 74.8 MB

------------------------------------------------------------------------------
                              ORCA PROPERTY CALCULATIONS
------------------------------------------------------------------------------

GBWName                                 ... li_dmc_1_freq.inp.gbw
Number of atoms                         ...     13
Number of basis functions               ...    128
Max core memory                         ...   1024 MB

Electric properties:
Dipole moment                           ... YES
Quadrupole moment                       ...  NO
Static polarizability (Dipole/Dipole)   ...  NO
Static polarizability (Dipole/Quad.)    ...  NO
Static polarizability (Quad./Quad.)     ...  NO
Static polarizability (Velocity)        ...  NO

Atomic electric properties:
Dipole moment                           ...  NO
Quadrupole moment                       ...  NO
Static polarizability                   ...  NO

Choice of electric origin               ... Center of mass
Position of electric origin             ...    -3.467014     3.323576    -0.025263

General magnetic properties:
Magnetizability                         ...  NO

EPR properties:
g-Tensor (aka g-matrix)                 ...  NO
Zero-Field splitting spin-orbit         ...  NO
Zero-field splitting spin-spin          ...  NO
Hyperfine couplings                     ...  NO (   0 nuclei)
Quadrupole couplings                    ...  NO (   0 nuclei)
Contact density                         ...  NO (   0 nuclei)

NMR properties:
Chemical shifts                         ...  NO (   0 nuclei)
Spin-rotation constants                 ...  NO (   0 nuclei)
Spin-spin couplings                     ...  NO (   0 nuclei,    0 pairs)

Choice of magnetic origin               ... GIAO
Position of magnetic origin             ...     0.000000     0.000000     0.000000

Properties with geometric perturbations:
SCF Hessian                             ... YES
IR spectrum                             ... YES
VCD spectrum                            ...  NO
X-ray spectroscopy properties:
SCF XES/XAS/RIXS spectra                ...  NO


-------------
DIPOLE MOMENT
-------------

Method             : SCF
Type of density    : Electron Density
Multiplicity       :   1
Irrep              :   0
Energy             :  -350.5343702553326466 Eh
Relativity type    : 
Basis              : AO
                                X                 Y                 Z
Electronic contribution:     -0.577872196       6.763976175       0.828009356
Nuclear contribution   :      0.264554973      -3.110989487      -0.376800981
                        -----------------------------------------
Total Dipole Moment    :     -0.313317223       3.652986688       0.451208375
                        -----------------------------------------
Magnitude (a.u.)       :      3.694058529
Magnitude (Debye)      :      9.389550582



--------------------
Rotational spectrum 
--------------------
 
Rotational constants in cm-1:             0.158205             0.076932             0.052833 
Rotational constants in MHz :          4742.878398          2306.354588          1583.907883 

Dipole components along the rotational axes: 
x,y,z [a.u.] :     0.032283     3.693827    -0.025841 
x,y,z [Debye]:     0.082056     9.388962    -0.065682 

 

Dipole moment calculation done in   0.0 sec 

-----------
SCF HESSIAN
-----------

Occupied/Occupied contributions to the Hessian:
   => Occupied/Occupied contributions              ... done (  0.0 sec)
Perturbed density contributions to the Hessian:
   => Perturbed density contributions              ... done (  0.0 sec)
Explicit contributions to the Hessian:
   => Nuclear repulsion Hessian                    ... done (  0.0 sec)
   => HCore and overlap Hessian                    ... done (  1.5 sec)
   => RI-J Hessian                                 ... done (  2.8 sec)
   => COSX Hessian                                 ... done (111.8 sec)
   => XC-Hessian                                   ... done ( 21.3 sec)
   => Van der Waals-Hessian                        ... done (  1.8 sec)
   => Explicit contributions done
Dipole derivatives                                 ... done (  0.0 sec)
Mass weighting the Hessian           ... done
Calculating normal modes             ... done
Scaling frequencies                  ... done

-----------------------
VIBRATIONAL FREQUENCIES
-----------------------

Scaling factor for frequencies =  1.000000000  (already applied!)

     0:       0.00 cm**-1
     1:       0.00 cm**-1
     2:       0.00 cm**-1
     3:       0.00 cm**-1
     4:       0.00 cm**-1
     5:       0.00 cm**-1
     6:      95.23 cm**-1
     7:     113.40 cm**-1
     8:     129.59 cm**-1
     9:     142.32 cm**-1
    10:     154.68 cm**-1
    11:     198.97 cm**-1
    12:     225.96 cm**-1
    13:     332.15 cm**-1
    14:     503.01 cm**-1
    15:     637.50 cm**-1
    16:     696.29 cm**-1
    17:     807.64 cm**-1
    18:     992.31 cm**-1
    19:     995.12 cm**-1
    20:    1162.28 cm**-1
    21:    1167.54 cm**-1
    22:    1169.82 cm**-1
    23:    1192.20 cm**-1
    24:    1269.21 cm**-1
    25:    1412.74 cm**-1
    26:    1447.37 cm**-1
    27:    1461.37 cm**-1
    28:    1465.33 cm**-1
    29:    1467.63 cm**-1
    30:    1468.37 cm**-1
    31:    1561.62 cm**-1
    32:    1725.65 cm**-1
    33:    3052.09 cm**-1
    34:    3052.90 cm**-1
    35:    3150.53 cm**-1
    36:    3151.51 cm**-1
    37:    3198.81 cm**-1
    38:    3198.94 cm**-1


------------
NORMAL MODES
------------

These modes are the Cartesian displacements weighted by the diagonal matrix
M(i,i)=1/sqrt(m[i]) where m[i] is the mass of the displaced atom
Thus, these vectors are normalized but *not* orthogonal

                  0          1          2          3          4          5    
      0       0.000000   0.000000   0.000000   0.000000   0.000000   0.000000
      1       0.000000   0.000000   0.000000   0.000000   0.000000   0.000000
      2       0.000000   0.000000   0.000000   0.000000   0.000000   0.000000
      3       0.000000   0.000000   0.000000   0.000000   0.000000   0.000000
      4       0.000000   0.000000   0.000000   0.000000   0.000000   0.000000
      5       0.000000   0.000000   0.000000   0.000000   0.000000   0.000000
      6       0.000000   0.000000   0.000000   0.000000   0.000000   0.000000
      7       0.000000   0.000000   0.000000   0.000000   0.000000   0.000000
      8       0.000000   0.000000   0.000000   0.000000   0.000000   0.000000
      9       0.000000   0.000000   0.000000   0.000000   0.000000   0.000000
     10       0.000000   0.000000   0.000000   0.000000   0.000000   0.000000
     11       0.000000   0.000000   0.000000   0.000000   0.000000   0.000000
     12       0.000000   0.000000   0.000000   0.000000   0.000000   0.000000
     13       0.000000   0.000000   0.000000   0.000000   0.000000   0.000000
     14       0.000000   0.000000   0.000000   0.000000   0.000000   0.000000
     15       0.000000   0.000000   0.000000   0.000000   0.000000   0.000000
     16       0.000000   0.000000   0.000000   0.000000   0.000000   0.000000
     17       0.000000   0.000000   0.000000   0.000000   0.000000   0.000000
     18       0.000000   0.000000   0.000000   0.000000   0.000000   0.000000
     19       0.000000   0.000000   0.000000   0.000000   0.000000   0.000000
     20       0.000000   0.000000   0.000000   0.000000   0.000000   0.000000
     21       0.000000   0.000000   0.000000   0.000000   0.000000   0.000000
     22       0.000000   0.000000   0.000000   0.000000   0.000000   0.000000
     23       0.000000   0.000000   0.000000   0.000000   0.000000   0.000000
     24       0.000000   0.000000   0.000000   0.000000   0.000000   0.000000
     25       0.000000   0.000000   0.000000   0.000000   0.000000   0.000000
     26       0.000000   0.000000   0.000000   0.000000   0.000000   0.000000
     27       0.000000   0.000000   0.000000   0.000000   0.000000   0.000000
     28       0.000000   0.000000   0.000000   0.000000   0.000000   0.000000
     29       0.000000   0.000000   0.000000   0.000000   0.000000   0.000000
     30       0.000000   0.000000   0.000000   0.000000   0.000000   0.000000
     31       0.000000   0.000000   0.000000   0.000000   0.000000   0.000000
     32       0.000000   0.000000   0.000000   0.000000   0.000000   0.000000
     33       0.000000   0.000000   0.000000   0.000000   0.000000   0.000000
     34       0.000000   0.000000   0.000000   0.000000   0.000000   0.000000
     35       0.000000   0.000000   0.000000   0.000000   0.000000   0.000000
     36       0.000000   0.000000   0.000000   0.000000   0.000000   0.000000
     37       0.000000   0.000000   0.000000   0.000000   0.000000   0.000000
     38       0.000000   0.000000   0.000000   0.000000   0.000000   0.000000
                  6          7          8          9         10         11    
      0       0.055712   0.001980   0.000021   0.000887   0.004548   0.003421
      1       0.161898  -0.027556   0.004289  -0.009583  -0.014926  -0.009223
      2       0.028192   0.172337  -0.018790   0.057641   0.143606   0.098009
      3       0.009704  -0.002669   0.000416  -0.000781   0.000628  -0.006051
      4       0.067753   0.015574  -0.004073   0.007443  -0.007628   0.039401
      5      -0.002350  -0.122793   0.031227  -0.055815   0.051349  -0.295920
      6       0.084171  -0.106065  -0.096713  -0.172937  -0.000199  -0.302999
      7       0.185446   0.211760  -0.329546  -0.251059   0.158979  -0.102759
      8       0.039643   0.410427  -0.291538  -0.114454   0.301298   0.089295
      9       0.096629   0.116004   0.089046   0.167835   0.019219   0.314895
     10       0.149670  -0.321845   0.399868   0.269717  -0.223641   0.086102
     11       0.042682   0.332040  -0.194172  -0.049087   0.248163   0.103427
     12      -0.016395   0.000101   0.007204   0.009114  -0.002439   0.005545
     13       0.215396  -0.003326  -0.053068  -0.061969   0.010935  -0.049259
     14       0.023527  -0.011897   0.401008   0.431032  -0.023183   0.408387
     15       0.070251  -0.002940   0.000405  -0.001273  -0.001006   0.000433
     16       0.006160   0.008599   0.000008   0.006457   0.017977  -0.002650
     17      -0.002083  -0.061029  -0.004507  -0.041752  -0.152761  -0.000333
     18       0.021702  -0.002951  -0.000578  -0.001135   0.001840   0.005893
     19      -0.063137   0.018269   0.005356   0.007494  -0.010199  -0.042509
     20      -0.015579  -0.120519  -0.046467  -0.046091   0.048837   0.294920
     21       0.084514   0.000731   0.000024   0.002286   0.002422  -0.005564
     22      -0.151655  -0.019180  -0.004241  -0.008498  -0.020633   0.018199
     23      -0.012191   0.172118   0.035094   0.051313   0.143266  -0.095965
     24       0.106892  -0.072259   0.113368  -0.238328   0.037454   0.310770
     25      -0.147960  -0.292146  -0.330376   0.305295  -0.246240  -0.025073
     26      -0.017992   0.321880   0.199101  -0.096489   0.261928  -0.097176
     27       0.131886   0.079766  -0.110165   0.244342  -0.031093  -0.336465
     28      -0.156787   0.211532   0.275242  -0.280024   0.172142   0.061710
     29      -0.010772   0.379799   0.272069  -0.168958   0.312202  -0.082274
     30       0.023246  -0.002026  -0.002797   0.003211   0.000776   0.000744
     31      -0.217489  -0.003828   0.036649  -0.064646   0.001767   0.065143
     32      -0.005816   0.026633  -0.313187   0.504343  -0.047904  -0.413751
     33       0.134730  -0.002163   0.001573  -0.002088  -0.004755   0.001792
     34       0.010489  -0.005891  -0.000884   0.001237   0.060981  -0.002698
     35       0.010194   0.044939   0.002732  -0.004455  -0.467984   0.000269
     36      -0.809090   0.016081  -0.004022   0.004017  -0.008493   0.000284
     37      -0.067308   0.030296  -0.000838  -0.005156  -0.050738  -0.002771
     38      -0.016604  -0.245068  -0.002227   0.055332   0.462854  -0.002426
                 12         13         14         15         16         17    
      0       0.070637  -0.148458   0.306932  -0.176150   0.011735   0.000667
      1       0.225362  -0.151691  -0.033810   0.029550  -0.012312   0.002188
      2       0.028191  -0.018060  -0.010473   0.007442  -0.001988  -0.016710
      3      -0.031361  -0.047185   0.162500  -0.117645  -0.078018  -0.003379
      4      -0.074915   0.119033  -0.085453  -0.148596  -0.331225   0.028377
      5      -0.006438   0.017762  -0.013859  -0.018735  -0.044223  -0.199051
      6       0.223187  -0.298989   0.364426  -0.084864   0.249498  -0.124746
      7       0.271016  -0.205686  -0.001379   0.056127   0.067417   0.029283
      8       0.032693  -0.031522   0.002467   0.010618   0.011476   0.033584
      9       0.215498  -0.298562   0.362579  -0.084529   0.248416   0.125568
     10       0.269693  -0.206466   0.001875   0.056749   0.069918  -0.037455
     11       0.029874  -0.014747  -0.016938   0.007990  -0.002894   0.019454
     12      -0.138126   0.060301   0.180114  -0.278034  -0.347567   0.003159
     13       0.379049  -0.306319   0.061062   0.101418   0.250030  -0.011616
     14       0.049745  -0.042653   0.004810   0.019644   0.041350   0.079789
     15       0.011795   0.040199  -0.006510   0.011384  -0.171418   0.015450
     16      -0.129891   0.002838   0.068948  -0.132700  -0.015709  -0.118824
     17      -0.018128  -0.000686   0.010096  -0.015951   0.001750   0.869902
     18       0.044633  -0.024110  -0.144705   0.141504  -0.137695  -0.003934
     19      -0.065712  -0.126442  -0.113217  -0.122278   0.312383   0.027025
     20      -0.015369  -0.018412  -0.013379  -0.019186   0.044874  -0.199064
     21      -0.109179  -0.174433  -0.295689   0.167786   0.008791  -0.000446
     22       0.207586   0.123967  -0.089645   0.060826   0.014082   0.001822
     23       0.031475   0.020596  -0.006799   0.005290   0.001974  -0.016754
     24      -0.278139  -0.344274  -0.360604   0.072666   0.264727  -0.116500
     25       0.234544   0.157447  -0.065440   0.068851  -0.018240  -0.058073
     26       0.029231   0.013945  -0.013189   0.006818  -0.000188   0.020265
     27      -0.246721  -0.323500  -0.353999   0.077345   0.250222   0.117128
     28       0.215797   0.144042  -0.067617   0.071663  -0.026109   0.052983
     29       0.029399   0.029086   0.006290   0.009795  -0.015800   0.032874
     30       0.067020   0.004536  -0.188781   0.252462  -0.297616   0.000054
     31       0.392982   0.314827   0.026188   0.147752  -0.310873  -0.009945
     32       0.073823   0.055946   0.009148   0.015533  -0.038224   0.079954
     33       0.010875   0.368297  -0.008507   0.005699   0.305766  -0.004738
     34      -0.132295   0.032926   0.089884  -0.068626   0.028100   0.033563
     35      -0.016291  -0.001651   0.014891  -0.004289  -0.001737  -0.251396
     36       0.013467  -0.021068  -0.030143  -0.066827   0.000144  -0.000017
     37      -0.151380  -0.000920   0.351654   0.782807  -0.001886  -0.001330
     38      -0.019608   0.000639   0.041952   0.092640   0.000122   0.011097
                 18         19         20         21         22         23    
      0      -0.391377  -0.145522   0.002568  -0.001086   0.047478   0.046837
      1       0.143554  -0.005206  -0.014729  -0.005769  -0.128228   0.096056
      2       0.027392   0.002099   0.096123   0.096586  -0.011788   0.012187
      3       0.276898   0.066253  -0.002451   0.006337  -0.122540  -0.019396
      4      -0.146923  -0.200721   0.006884   0.002636   0.057006  -0.057610
      5      -0.025719  -0.028963  -0.044491  -0.043264   0.007082  -0.007431
      6      -0.258732   0.158867   0.411182   0.379525   0.346286  -0.309194
      7       0.108761   0.100558  -0.188576  -0.191108   0.067839  -0.122689
      8      -0.020819   0.027450  -0.151694  -0.154439   0.086402  -0.097623
      9      -0.257109   0.157334  -0.407750  -0.420464   0.286570  -0.304245
     10       0.097595   0.105423   0.221834   0.211133   0.121047  -0.146891
     11       0.059558  -0.005534  -0.080408  -0.072224  -0.088952   0.072854
     12      -0.238202  -0.469921  -0.008362   0.020408  -0.424409   0.452422
     13       0.032553   0.229454   0.032373   0.017675   0.211763  -0.194622
     14       0.009054   0.040968  -0.219127  -0.218809   0.022464  -0.035830
     15       0.213434  -0.021144  -0.000514   0.000528  -0.000662  -0.027667
     16       0.026863   0.168126   0.000168  -0.000814   0.007104  -0.002486
     17       0.000170   0.023357   0.000063   0.002086   0.000979  -0.000078
     18       0.241993  -0.040879   0.002299  -0.007378   0.110317  -0.029267
     19       0.177169  -0.218989  -0.004847   0.001347   0.078739   0.053220
     20       0.019614  -0.029040   0.043865  -0.044000   0.004088   0.007937
     21      -0.345622   0.161849  -0.002071   0.003318  -0.023584   0.063407
     22      -0.210523   0.032457   0.011074  -0.005524  -0.135263  -0.086116
     23      -0.022466   0.001155  -0.094590   0.098284  -0.007158  -0.012767
     24      -0.251123  -0.168903  -0.354079   0.374056  -0.296889  -0.334276
     25      -0.138713   0.076274  -0.285644   0.289997   0.070080   0.080513
     26      -0.055944  -0.001750   0.085090  -0.082202  -0.091505  -0.072329
     27      -0.246389  -0.154466   0.361609  -0.353147  -0.359423  -0.318489
     28      -0.146288   0.083475   0.257489  -0.264237   0.000095   0.072151
     29       0.027030   0.028413   0.142999  -0.149221   0.083574   0.099754
     30      -0.193325   0.431144  -0.001896  -0.014506   0.378303   0.410117
     31      -0.050015   0.315313  -0.027769   0.016039   0.286796   0.274985
     32      -0.003828   0.037855   0.215112  -0.222160   0.009936   0.032957
     33      -0.031667  -0.025894   0.000122  -0.000148  -0.001221   0.011292
     34       0.009738   0.297064   0.000023  -0.000162   0.013637   0.001034
     35       0.001725   0.039472  -0.000052  -0.004218   0.001467   0.000006
     36      -0.007221   0.016206  -0.000005   0.000016   0.000887   0.001866
     37      -0.008803  -0.187615  -0.000124   0.000596  -0.010686   0.000143
     38      -0.000909  -0.021837  -0.000034   0.000609  -0.001219  -0.000011
                 24         25         26         27         28         29    
      0      -0.154494   0.070853   0.059536   0.001241  -0.020811  -0.000240
      1      -0.047886  -0.027226  -0.006519   0.033777   0.034935   0.004674
      2      -0.003676  -0.005129  -0.002173   0.004289   0.004931  -0.038719
      3       0.236141  -0.034203   0.029296   0.007000  -0.000935   0.000182
      4       0.108875  -0.023185   0.002401   0.015711   0.015157   0.001017
      5       0.010644  -0.002602  -0.000244   0.001989   0.002084  -0.008837
      6       0.287805  -0.357177  -0.321408   0.068033   0.175573   0.290640
      7       0.189314  -0.008561  -0.106758  -0.337810  -0.296869   0.185440
      8       0.108765   0.100449  -0.005333  -0.329296  -0.323320   0.069740
      9       0.284380  -0.362363  -0.324726   0.074851   0.183255  -0.297827
     10       0.212907   0.016840  -0.107450  -0.417308  -0.375169  -0.183751
     11      -0.064318  -0.085474  -0.011350   0.223298   0.224475   0.018561
     12      -0.342054  -0.355858  -0.399310  -0.212336  -0.083883   0.011147
     13       0.088519   0.273099   0.318103   0.177334   0.071606  -0.071618
     14       0.019520   0.045218   0.053836   0.032477   0.014656   0.510658
     15       0.004033   0.153588  -0.004213  -0.006899   0.000988  -0.000552
     16      -0.039819   0.013909   0.046262  -0.001027  -0.007013   0.000154
     17      -0.005777  -0.000785   0.006283  -0.000029  -0.000931  -0.000012
     18      -0.252404  -0.037686  -0.029125   0.009655  -0.002659  -0.000064
     19       0.063741   0.016529  -0.003083  -0.012915   0.016125  -0.001169
     20       0.013543   0.003073  -0.000154  -0.001648   0.002210   0.008568
     21       0.160832   0.064769  -0.057242   0.008838   0.013382  -0.000290
     22      -0.018617   0.039821  -0.017388  -0.029939   0.040654  -0.004694
     23      -0.005635   0.004181  -0.002277  -0.003049   0.005239   0.037644
     24      -0.325266  -0.354369   0.342282  -0.015161  -0.117769  -0.310556
     25       0.149179  -0.081242  -0.046112   0.387936  -0.426412   0.131495
     26      -0.064989   0.088031  -0.011785  -0.213481   0.250212  -0.025889
     27      -0.310757  -0.352734   0.331161  -0.004304  -0.110888   0.317367
     28       0.141397  -0.058869  -0.042688   0.324287  -0.360417  -0.119994
     29       0.109007  -0.098690  -0.002123   0.295841  -0.341960  -0.058237
     30       0.320895  -0.300164   0.332656  -0.172141   0.083258  -0.000979
     31       0.149943  -0.334574   0.383801  -0.208232   0.104435   0.061907
     32       0.020298  -0.038069   0.051658  -0.029249   0.002929  -0.497571
     33       0.016217  -0.015927   0.003957  -0.003415   0.000445   0.000089
     34      -0.179924  -0.001174  -0.043489  -0.000387  -0.003577  -0.000146
     35      -0.024236   0.000122  -0.005948   0.000047  -0.000522  -0.000005
     36      -0.005496   0.004406  -0.000482   0.001894  -0.000410  -0.000028
     37       0.065589   0.000258   0.005201   0.000301   0.003771  -0.000053
     38       0.007597  -0.000033   0.000577  -0.000026   0.000443   0.000002
                 30         31         32         33         34         35    
      0      -0.001379  -0.051796   0.032054   0.013633  -0.031791   0.000493
      1       0.005503   0.004256  -0.013549  -0.012360   0.028586  -0.004345
      2      -0.036933   0.001510  -0.002471  -0.001824   0.004232   0.030827
      3      -0.000628  -0.149442   0.078885   0.001149  -0.001747  -0.000003
      4       0.001112  -0.056766   0.092275   0.000033  -0.000384   0.000047
      5      -0.008056  -0.005027   0.011106  -0.000016  -0.000020  -0.000316
      6       0.292738   0.335852  -0.180262  -0.042834   0.099641  -0.035923
      7       0.172103  -0.034149  -0.050355   0.167586  -0.386750   0.149619
      8       0.058280  -0.129951   0.045421  -0.193226   0.445820  -0.166613
      9      -0.282648   0.340365  -0.182624  -0.034264   0.079886   0.028842
     10      -0.187209  -0.066930  -0.037001   0.107806  -0.248865  -0.099140
     11       0.024475   0.102941  -0.050169   0.230986  -0.533092  -0.202879
     12       0.012906   0.266246  -0.222121  -0.090681   0.210605   0.001224
     13      -0.070983  -0.235553   0.172252  -0.125319   0.289646   0.000786
     14       0.495148  -0.037003   0.027973  -0.015517   0.035848   0.005597
     15       0.000293   0.398129   0.062700  -0.003074   0.000843   0.000021
     16       0.000041   0.035643  -0.708636   0.001096   0.003517  -0.000074
     17      -0.002700  -0.002158  -0.097822   0.000201   0.000464   0.000246
     18       0.000242  -0.157174  -0.092797   0.002066   0.000534   0.000002
     19       0.001116   0.028519   0.075949   0.000091  -0.000162  -0.000072
     20      -0.008309   0.006831   0.012080  -0.000007  -0.000025   0.000578
     21       0.000333  -0.050483  -0.028923   0.025874   0.011328  -0.001383
     22       0.004759  -0.013878  -0.019157   0.034113   0.014812   0.011026
     23      -0.038144  -0.001158  -0.002754   0.003125   0.001356  -0.090669
     24       0.320618   0.321445   0.184754  -0.033701  -0.014912   0.030677
     25      -0.134073   0.125687  -0.006612  -0.269711  -0.116765   0.314374
     26       0.026619  -0.106506  -0.050224  -0.525764  -0.227445   0.589357
     27      -0.328327   0.327961   0.185409  -0.026737  -0.011905  -0.022375
     28       0.122050   0.098315  -0.014098  -0.390474  -0.169042  -0.438779
     29       0.059393   0.128589   0.045726   0.456683   0.197585   0.496868
     30       0.000742   0.219759   0.186365  -0.258362  -0.112381   0.007701
     31      -0.063830   0.282259   0.209254   0.245921   0.106480  -0.005462
     32       0.510468   0.030059   0.026050   0.030712   0.013299  -0.016962
     33      -0.000039  -0.031526  -0.034238  -0.000072   0.000196   0.000015
     34       0.000181  -0.002050   0.376570  -0.000667  -0.001625   0.000013
     35       0.001293   0.000323   0.051905  -0.000088  -0.000220   0.000074
     36      -0.000045   0.004375   0.001205   0.000371  -0.000150   0.000001
     37       0.000136   0.000172  -0.012613   0.000077   0.000106   0.000011
     38      -0.001217  -0.000056  -0.001270  -0.000001   0.000010  -0.000081
                 36         37         38    
      0      -0.001431   0.005525  -0.039078
      1       0.012762   0.011955  -0.084771
      2      -0.090474   0.001608  -0.011433
      3      -0.000001   0.000029   0.000199
      4      -0.000069   0.000058   0.000590
      5       0.000488   0.000007   0.000078
      6       0.104732   0.006086  -0.043715
      7      -0.438643  -0.022778   0.162001
      8       0.488411   0.027825  -0.198371
      9      -0.083984   0.005008  -0.036078
     10       0.290653  -0.014758   0.104985
     11       0.594705  -0.033985   0.242447
     12      -0.003738  -0.075474   0.533408
     13      -0.002480  -0.103836   0.734952
     14      -0.016527  -0.012886   0.091212
     15       0.000015  -0.000955   0.000835
     16      -0.000073  -0.000698  -0.000729
     17       0.000511  -0.000067  -0.000110
     18      -0.000002  -0.000283  -0.000122
     19      -0.000004   0.000508   0.000200
     20       0.000047   0.000059   0.000027
     21      -0.000472   0.053935   0.007611
     22       0.003771  -0.076301  -0.010789
     23      -0.030968  -0.010249  -0.001456
     24       0.010267   0.016740   0.002436
     25       0.107212   0.115726   0.016436
     26       0.201020   0.241264   0.034337
     27      -0.007443   0.013003   0.001903
     28      -0.149684   0.160221   0.022716
     29       0.169530  -0.198866  -0.028248
     30       0.002637  -0.659157  -0.092902
     31      -0.001876   0.627410   0.088554
     32      -0.005822   0.078836   0.011128
     33       0.000009   0.000092  -0.000111
     34      -0.000018   0.000230   0.000282
     35       0.000141   0.000029   0.000041
     36      -0.000009  -0.000113   0.000070
     37       0.000019   0.000063   0.000100
     38      -0.000156   0.000008   0.000011


-----------
IR SPECTRUM
-----------

 Mode   freq       eps      Int      T**2         TX        TY        TZ
       cm**-1   L/(mol*cm) km/mol    a.u.
----------------------------------------------------------------------------
  6:     95.23   0.012081   61.05  0.039588  (-0.198238 -0.016778 -0.002947)
  7:    113.40   0.000348    1.76  0.000958  ( 0.006590  0.003194 -0.030076)
  8:    129.59   0.000006    0.03  0.000014  (-0.002826 -0.000385  0.002513)
  9:    142.32   0.001192    6.03  0.002615  ( 0.003525 -0.006247  0.050629)
 10:    154.68   0.010596   53.55  0.021377  (-0.000763 -0.017129  0.145200)
 11:    198.97   0.000000    0.00  0.000001  (-0.000556  0.000247 -0.000369)
 12:    225.96   0.000044    0.22  0.000061  (-0.000394  0.007652  0.001378)
 13:    332.15   0.007568   38.25  0.007111  (-0.083985 -0.007554  0.000580)
 14:    503.01   0.005597   28.28  0.003472  (-0.004889  0.058320  0.006860)
 15:    637.50   0.034629  175.00  0.016951  (-0.011118  0.128761  0.015765)
 16:    696.29   0.000253    1.28  0.000113  (-0.010546 -0.001460  0.000059)
 17:    807.64   0.008307   41.98  0.003210  ( 0.001196 -0.007824  0.056099)
 18:    992.31   0.021838  110.36  0.006868  (-0.082475 -0.008078  0.000538)
 19:    995.12   0.000527    2.66  0.000165  ( 0.003493 -0.012322 -0.001068)
 20:   1162.28   0.000002    0.01  0.000000  (-0.000617 -0.000200  0.000113)
 21:   1167.54   0.000426    2.15  0.000114  ( 0.000688 -0.000336  0.010647)
 22:   1169.82   0.001070    5.41  0.000285  ( 0.001422 -0.016763 -0.001549)
 23:   1192.20   0.002944   14.88  0.000771  ( 0.027643  0.002547 -0.000299)
 24:   1269.21   0.001309    6.61  0.000322  (-0.001338  0.017756  0.002173)
 25:   1412.74   0.069548  351.47  0.015363  ( 0.123432  0.011253 -0.000808)
 26:   1447.37   0.006110   30.88  0.001317  (-0.003319  0.035748  0.005327)
 27:   1461.37   0.007707   38.95  0.001646  (-0.040263 -0.004956 -0.000255)
 28:   1465.33   0.003735   18.87  0.000795  ( 0.004197 -0.027627 -0.003807)
 29:   1467.63   0.000001    0.01  0.000000  ( 0.000034 -0.000062  0.000530)
 30:   1468.37   0.006293   31.80  0.001337  ( 0.000665 -0.005053  0.036213)
 31:   1561.62   0.128128  647.50  0.025604  ( 0.159363  0.014374 -0.000951)
 32:   1725.65   0.106989  540.68  0.019348  ( 0.011833 -0.137343 -0.018565)
 33:   3052.09   0.003468   17.53  0.000355  ( 0.017408  0.007164  0.000491)
 34:   3052.90   0.002338   11.81  0.000239  (-0.008292  0.012948  0.001599)
 35:   3150.53   0.000729    3.69  0.000072  (-0.000132  0.000879 -0.008454)
 36:   3151.51   0.002915   14.73  0.000289  (-0.000353  0.002357 -0.016822)
 37:   3198.81   0.000005    0.03  0.000001  ( 0.000447 -0.000509 -0.000226)
 38:   3198.94   0.000007    0.04  0.000001  (-0.000246 -0.000791 -0.000069)

* The epsilon (eps) is given for a Dirac delta lineshape.
** The dipole moment derivative (T) already includes vibrational overlap.

The first frequency considered to be a vibration is 6
The total number of vibrations considered is 33


--------------------------
THERMOCHEMISTRY AT 298.15K
--------------------------

Temperature         ...   298.15 K
Pressure            ...     1.00 atm
Total Mass          ...    97.02 AMU
Quasi RRHO          ...     True
Cut-Off Frequency   ...     1.00 cm^-1

Throughout the following assumptions are being made:
  (1) The electronic state is orbitally nondegenerate
  (2) There are no thermally accessible electronically excited states
  (3) Hindered rotations indicated by low frequency modes are not
      treated as such but are treated as vibrations and this may
      cause some error
  (4) All equations used are the standard statistical mechanics
      equations for an ideal gas
  (5) All vibrations are strictly harmonic

freq.      95.23  E(vib)   ...       0.47 
freq.     113.40  E(vib)   ...       0.45 
freq.     129.59  E(vib)   ...       0.43 
freq.     142.32  E(vib)   ...       0.41 
freq.     154.68  E(vib)   ...       0.40 
freq.     198.97  E(vib)   ...       0.35 
freq.     225.96  E(vib)   ...       0.33 
freq.     332.15  E(vib)   ...       0.24 
freq.     503.01  E(vib)   ...       0.14 
freq.     637.50  E(vib)   ...       0.09 
freq.     696.29  E(vib)   ...       0.07 
freq.     807.64  E(vib)   ...       0.05 
freq.     992.31  E(vib)   ...       0.02 
freq.     995.12  E(vib)   ...       0.02 
freq.    1162.28  E(vib)   ...       0.01 
freq.    1167.54  E(vib)   ...       0.01 
freq.    1169.82  E(vib)   ...       0.01 
freq.    1192.20  E(vib)   ...       0.01 
freq.    1269.21  E(vib)   ...       0.01 
freq.    1412.74  E(vib)   ...       0.00 
freq.    1447.37  E(vib)   ...       0.00 
freq.    1461.37  E(vib)   ...       0.00 
freq.    1465.33  E(vib)   ...       0.00 
freq.    1467.63  E(vib)   ...       0.00 
freq.    1468.37  E(vib)   ...       0.00 
freq.    1561.62  E(vib)   ...       0.00 
freq.    1725.65  E(vib)   ...       0.00 
freq.    3052.09  E(vib)   ...       0.00 
freq.    3052.90  E(vib)   ...       0.00 
freq.    3150.53  E(vib)   ...       0.00 
freq.    3151.51  E(vib)   ...       0.00 
freq.    3198.81  E(vib)   ...       0.00 
freq.    3198.94  E(vib)   ...       0.00 

------------
INNER ENERGY
------------

The inner energy is: U= E(el) + E(ZPE) + E(vib) + E(rot) + E(trans)
    E(el)   - is the total energy from the electronic structure calculation
              = E(kin-el) + E(nuc-el) + E(el-el) + E(nuc-nuc)
    E(ZPE)  - the the zero temperature vibrational energy from the frequency calculation
    E(vib)  - the the finite temperature correction to E(ZPE) due to population
              of excited vibrational states
    E(rot)  - is the rotational thermal energy
    E(trans)- is the translational thermal energy

Summary of contributions to the inner energy U:
Electronic energy                ...   -350.54944094 Eh
Zero point energy                ...      0.09750569 Eh      61.19 kcal/mol
Thermal vibrational correction   ...      0.00564711 Eh       3.54 kcal/mol
Thermal rotational correction    ...      0.00141627 Eh       0.89 kcal/mol
Thermal translational correction ...      0.00141627 Eh       0.89 kcal/mol
-----------------------------------------------------------------------
Total thermal energy                   -350.44345560 Eh


Summary of corrections to the electronic energy:
(perhaps to be used in another calculation)
Total thermal correction                  0.00847965 Eh       5.32 kcal/mol
Non-thermal (ZPE) correction              0.09750569 Eh      61.19 kcal/mol
-----------------------------------------------------------------------
Total correction                          0.10598534 Eh      66.51 kcal/mol


--------
ENTHALPY
--------

The enthalpy is H = U + kB*T
                kB is Boltzmann's constant
Total thermal energy              ...   -350.44345560 Eh 
Thermal Enthalpy correction       ...      0.00094421 Eh       0.59 kcal/mol
-----------------------------------------------------------------------
Total Enthalpy                    ...   -350.44251139 Eh


Note: Only C1 symmetry has been detected, increase convergence thresholds 
      if your molecule has a higher symmetry. Symmetry factor of 1.0 is   
      used for the rotational entropy correction. 
 

Note: Rotational entropy computed according to Herzberg 
Infrared and Raman Spectra, Chapter V,1, Van Nostrand Reinhold, 1945 
Point Group:  C1, Symmetry Number:   1  
Rotational constants in cm-1:     0.158205     0.076932     0.052833 

Vibrational entropy computed according to the QRRHO of S. Grimme
Chem.Eur.J. 2012 18 9955 using a reference frequency of 100.0 cm-1


-------
ENTROPY
-------

The entropy contributions are T*S = T*(S(el)+S(vib)+S(rot)+S(trans))
     S(el)   - electronic entropy
     S(vib)  - vibrational entropy
     S(rot)  - rotational entropy
     S(trans)- translational entropy
The entropies will be listed as multiplied by the temperature to get
units of energy

Electronic entropy                ...      0.00000000 Eh      0.00 kcal/mol
Vibrational entropy               ...      0.01034029 Eh      6.49 kcal/mol
Rotational entropy                ...      0.01298035 Eh      8.15 kcal/mol
Translational entropy             ...      0.01882838 Eh     11.81 kcal/mol
-----------------------------------------------------------------------
Final entropy term                ...      0.04214902 Eh     26.45 kcal/mol

In case the symmetry of your molecule has not been determined correctly
or in case you have a reason to use a different symmetry number we print 
out the resulting rotational entropy values for sn=1,12:

 non-linear molecules -----------------------------------
|  sn= 1 | S(rot)=       0.01298035 Eh      8.15 kcal/mol|
|  sn= 2 | S(rot)=       0.01232589 Eh      7.73 kcal/mol|
|  sn= 3 | S(rot)=       0.01194306 Eh      7.49 kcal/mol|
|  sn= 4 | S(rot)=       0.01167144 Eh      7.32 kcal/mol|
|  sn= 5 | S(rot)=       0.01146075 Eh      7.19 kcal/mol|
|  sn= 6 | S(rot)=       0.01128860 Eh      7.08 kcal/mol|
|  sn= 7 | S(rot)=       0.01114306 Eh      6.99 kcal/mol|
|  sn= 8 | S(rot)=       0.01101698 Eh      6.91 kcal/mol|
|  sn= 9 | S(rot)=       0.01090577 Eh      6.84 kcal/mol|
|  sn=10 | S(rot)=       0.01080629 Eh      6.78 kcal/mol|
|  sn=11 | S(rot)=       0.01071630 Eh      6.72 kcal/mol|
|  sn=12 | S(rot)=       0.01063415 Eh      6.67 kcal/mol|
 linear molecules ---------------------------------------
|  Dinfh | S(rot)=       0.00810227 Eh      5.08 kcal/mol|
|  Cinfv | S(rot)=       0.00875673 Eh      5.49 kcal/mol|
 --------------------------------------------------------


-------------------
GIBBS FREE ENERGY
-------------------

The Gibbs free energy is G = H - T*S

Total enthalpy                    ...   -350.44251139 Eh 
Total entropy correction          ...     -0.04214902 Eh    -26.45 kcal/mol
-----------------------------------------------------------------------
Final Gibbs free energy         ...   -350.48466041 Eh

For completeness - the Gibbs free energy minus the electronic energy
G-E(el)                           ...      0.06478053 Eh     40.65 kcal/mol


Maximum memory used throughout the entire PROP-calculation: 35.0 MB

--------------------------------
SUGGESTED CITATIONS FOR THIS RUN
--------------------------------

Below you find a list of papers that are relevant to this ORCA run
We neither can nor want to force you to cite these papers, but we appreciate if you do
You receive ORCA, which is the product of decades of hard work by many enthusiastic individuals, for free
The only thing we kindly ask in return is that you cite our papers,
We deeply appreciate it, if you show your appreciation for ORCA by not just citing the generic ORCA reference.

Please note that relegating all ORCA citations to the supporting information does *not* help us.
SI sections are not indexed - citations you put there will not count into any citation statistics
But we need these citations in order to attract the funding resources that allow us to do what we are doing

Therefore, if you are a happy ORCA user, please consider citing a few of the papers listed below in the main body of your paper

In addition to the list printed below, the program has created the file li_dmc_1_freq.inp.bibtex that contains the list in bibtex format
You can import this file easily into all common literature databanks and citation aid programs


List of essential papers. We consider these as the minimum necessary citations

  1. Neese,F.
     Software update: the ORCA program system, version 5.0
     WIRES Comput. Molec. Sci., 2022 12(1)e1606
     doi.org/10.1002/wcms.1606

List of papers to cite with high priority. The work reported in these papers was absolutely
necessary for this run to complete.
Our perspective: the developers of density functionals and basis sets usually get cited in chemistry papers
Good! But without the algorithms to do something with them, the functionals or basis sets would not do anything.
Hence, in our opinion, the algorithm design and method developments papers are equally worthy of getting cited

  1. Neese,F.
     An improvement of the resolution of the identity approximation for the formation of the Coulomb matrix
     J. Comp. Chem., 2003 24(14)1740-1747
     doi.org/10.1002/jcc.10318
  2. Neese,F.; Wennmohs,F.; Hansen,A.; Becker,U.
     Efficient, approximate and parallel Hartree-Fock and hybrid DFT calculations. A 'chain-of-spheres' algorithm for the Hartree-Fock exchange
     Chem. Phys., 2009 356(1-3)98-109
     doi.org/10.1016/j.chemphys.2008.10.036
  3. Bykov,D.; Petrenko,T.; Izsak,R.; Kossmann,S.; Becker,U.; Valeev,E.; Neese,F.
     Efficient implementation of the analytic second derivatives of Hartree-Fock and hybrid DFT energies: a detailed analysis of different approximations
     Molec. Phys., 2015 113 1961-1977
     doi.org/10.1080/00268976.2015.1025114
  4. Helmich-Paris,B.; de Souza,B.; Neese,F.; Izsák,R.
     An improved chain of spheres for exchange algorithm
     J. Chem. Phys., 2021 155 104109
     doi.org/doi: 10.1063/5.0058766.
  5. Neese,F.
     The SHARK Integral Generation and Digestion System
     J. Comp. Chem., 2022  1-16
     doi.org/10.1002/jcc.26942
  6. Grimme,S.; Antony,J.; Ehrlich,S.; Krieg,H.
     A consistent and accurate ab initio parametrization of density functional dispersion correction (DFT-D) for the 94 elements H-Pu
     J. Chem. Phys., 2010 132 154104
     doi.org/10.1063/1.3382344
  7. Grimme,S.; Ehrlich,S.; Goerigk,L.
     Effect of the damping function in dispersion corrected density functional theory
     J. Comput. Chem., 2011 32(7)1456-1465
     doi.org/10.1002/jcc.21759

List of suggested additional citations. These are papers that are important in the 'surrounding' of 
of this run, or papers that preceded the highly important papers. If you like your results we are grateful for a citation.

  1. Izsak,R.; Neese,F.
     An overlap fitted chain of spheres exchange method
     J. Chem. Phys., 2011 135 144105
     doi.org/10.1063/1.3646921
  2. Izsak,R.; Hansen,A.; Neese,F.
     The resolution of identity and chain of spheres approximations for the LPNO-CCSD singles Fock term
     Molec. Phys., 2012 110 2413-2417
     doi.org/10.1080/00268976.2012.687466
  3. Neese,F.
     The ORCA program system
     WIRES Comput. Molec. Sci., 2012 2(1)73-78
     doi.org/10.1002/wcms.81
  4. Izsak,R.; Neese,F.; Klopper,W.
     Robust fitting techniques in the chain of spheres approximation to the Fock exchange: The role of the complementary space
     J. Chem. Phys., 2013 139 
     doi.org/10.1063/1.4819264
  5. Neese,F.
     Software update: the ORCA program system, version 4.0
     WIRES Comput. Molec. Sci., 2018 8(1)1-6
     doi.org/10.1002/wcms.1327
  6. Neese,F.; Wennmohs,F.; Becker,U.; Riplinger,C.
     The ORCA quantum chemistry program package
     J. Chem. Phys., 2020 152 Art. No. L224108
     doi.org/10.1063/5.0004608

List of optional additional citations

  1. Neese,F.
     Approximate second-order SCF convergence for spin unrestricted wavefunctions
     Chem. Phys. Lett., 2000 325(1-3)93-98
     doi.org/10.1016/s0009-2614(00)00662-x

Timings for individual modules:

Sum of individual times          ...      227.341 sec (=   3.789 min)
Startup calculation              ...        1.014 sec (=   0.017 min)   0.4 %
SCF iterations                   ...       20.672 sec (=   0.345 min)   9.1 %
Property integrals               ...       45.616 sec (=   0.760 min)  20.1 %
SCF Response                     ...       20.686 sec (=   0.345 min)   9.1 %
Property calculations            ...      139.353 sec (=   2.323 min)  61.3 %
                             ****ORCA TERMINATED NORMALLY****
TOTAL RUN TIME: 0 days 0 hours 3 minutes 47 seconds 525 msec
