
                                 *****************
                                 * O   R   C   A *
                                 *****************

                                            #,                                       
                                            ###                                      
                                            ####                                     
                                            #####                                    
                                            ######                                   
                                           ########,                                 
                                     ,,################,,,,,                         
                               ,,#################################,,                 
                          ,,##########################################,,             
                       ,#########################################, ''#####,          
                    ,#############################################,,   '####,        
                  ,##################################################,,,,####,       
                ,###########''''           ''''###############################       
              ,#####''   ,,,,##########,,,,          '''####'''          '####       
            ,##' ,,,,###########################,,,                        '##       
           ' ,,###''''                  '''############,,,                           
         ,,##''                                '''############,,,,        ,,,,,,###''
      ,#''                                            '''#######################'''  
     '                                                          ''''####''''         
             ,#######,   #######,   ,#######,      ##                                
            ,#'     '#,  ##    ##  ,#'     '#,    #''#        ,####,   ,####,        
            ##       ##  ##   ,#'  ##            #'  '#       #'       #'  '#        
            ##       ##  #######   ##           ,######,      #####,   #    #        
            '#,     ,#'  ##    ##  '#,     ,#' ,#      #,     #,   #   #,  ,#        
             '#######'   ##     ##  '#######'  #'      '#     '####' # '####'        



                #########################################################
                #                        -***-                          #
                #          Department of theory and spectroscopy        #
                #                                                       #
                #                      Frank Neese                      #
                #                                                       #
                #     Directorship, Architecture, Infrastructure        #
                #                    SHARK, DRIVERS                     #
                #        Core code/Algorithms in most modules           #
                #                                                       #
                #        Max Planck Institute fuer Kohlenforschung      #
                #                Kaiser Wilhelm Platz 1                 #
                #                 D-45470 Muelheim/Ruhr                 #
                #                      Germany                          #
                #                                                       #
                #                  All rights reserved                  #
                #                        -***-                          #
                #########################################################


                         Program Version 6.0.1  -  RELEASE   -


 With contributions from (in alphabetic order):
[Max-Planck-Institut fuer Kohlenforschung]                               
  Daniel Aravena         : Magnetic Suceptibility                        
  Michael Atanasov       : Ab Initio Ligand Field Theory (pilot matlab implementation)
  Alexander A. Auer      : GIAO ZORA, VPT2 properties, NMR spectrum      
  Ute Becker             : All parallelization in ORCA, NUMFREQ, NUMCALC 
  Giovanni Bistoni       : ED, misc. LED, open-shell LED, HFLD           
  Martin Brehm           : Molecular dynamics                            
  Dmytro Bykov           : pre 5.0 version of the SCF Hessian            
  Marcos Casanova-Páez   : Triplet and SCS-CIS(D). UHF-(DLPNO)-IP/EA/STEOM-CCSD. UHF-CVS-IP/STEOM-CCSD   
  Vijay G. Chilkuri      : MRCI spin determinant printing, contributions to CSF-ICE 
  Pauline Colinet        : FMM embedding                                 
  Dipayan Datta          : RHF DLPNO-CCSD density                        
  Achintya Kumar Dutta   : EOM-CC, STEOM-CC                              
  Nicolas Foglia         : Exact transition moments, OPA infrastructure, MCD improvements    
  Dmitry Ganyushin       : Spin-Orbit,Spin-Spin,Magnetic field MRCI      
  Miquel Garcia-Rates    : C-PCM and meta-GGA Hessian, CCSD/C-PCM, Gaussian charge scheme 
  Tiago L. C. Gouveia    : GS-ROHF, GS-ROCIS                             
  Yang Guo               : DLPNO-NEVPT2, F12-NEVPT2, CIM, IAO-localization        
  Andreas Hansen         : Spin unrestricted coupled pair/coupled cluster methods 
  Ingolf Harden          : AUTO-CI MPn and infrastructure                
  Benjamin Helmich-Paris : MC-RPA, TRAH-(SCF,CASSCF), AVAS, COSX integrals, SCF dyn. polar. 
  Lee Huntington         : MR-EOM, pCC                                   
  Robert Izsak           : Overlap fitted RIJCOSX, COSX-SCS-MP3, EOM     
  Riya Kayal             : Wick's Theorem for AUTO-CI, AUTO-CI UHF-CCSDT 
  Emily Kempfer          : AUTO-CI, RHF CISDT and CCSDT                  
  Christian Kollmar      : KDIIS, OOCD, Brueckner-CCSD(T), CCSD density, CASPT2, CASPT2-K, improved NEVPT2 
  Axel Koslowski         : Symmetry handling                             
  Simone Kossmann        : meta-GGA functionals, TD-DFT gradient, OOMP2, (MP2 Hessian; deprecated post 5.0) 
  Lucas Lang             : DCDCAS                                        
  Marvin Lechner         : AUTO-CI (C++ implementation), FIC-MRCC        
  Spencer Leger          : CASSCF response                               
  Dagmar Lenk            : GEPOL surface, SMD, ORCA-2-JSON               
  Dimitrios Liakos       : Extrapolation schemes; Compound Job, initial MDCI parallelization 
  Dimitrios Manganas     : Further ROCIS development; embedding schemes. LFT, Crystal Embedding 
  Dimitrios Pantazis     : SARC Basis sets                               
  Anastasios Papadopoulos: AUTO-CI, single reference methods and gradients 
  Taras Petrenko         : pre 6.0 DFT Hessian and TD-DFT gradient, (ASA, deprecated), ECA, 1-Electron XAS/XES, NRVS 
  Peter Pinski           : DLPNO-MP2, DLPNO-MP2 Gradient                 
  Christoph Reimann      : Effective Core Potentials                     
  Marius Retegan         : Local ZFS, SOC                                
  Christoph Riplinger    : Optimizer, TS searches, QM/MM, DLPNO-CCSD(T), (RO)-DLPNO pert. Triples 
  Michael Roemelt        : Original ROCIS implementation                 
  Masaaki Saitow         : Open-shell DLPNO-CCSD energy and density      
  Barbara Sandhoefer     : DKH picture change effects                    
  Kantharuban Sivalingam : CASSCF convergence/infrastructure, NEVPT2 and variants, FIC-MRCI 
  Bernardo de Souza      : ESD, SOC TD-DFT                               
  Georgi L. Stoychev     : AutoAux, RI-MP2 NMR, DLPNO-MP2 response, X2C  
  Van Anh Tran           : RI-MP2 g-tensors                              
  Willem Van den Heuvel  : Paramagnetic NMR                              
  Zikuan Wang            : NOTCH, Electric field optimization            
  Frank Wennmohs         : Technical directorship and infrastructure     
  Hang Xu                : AUTO-CI-Response properties                   
                                                                         
[FACCTs GmbH]                                                            
  Markus Bursch, Miquel Garcia-Rates, Christoph Riplinger, Bernardo de Souza, Georgi L. Stoychev 
                                                                 
  APM, Basis sets (HGBS, AHGBS, def-TZVP (Ac-Lr), def2-XVPD (La-Lu)), CI-OPT, improved COSX, DLPNO-Multilevel,           
  DOCKER, DRACO, updates on ESD, GOAT, IRC, LR-CPCM, MBIS, meta-GGA TD-DFT gradient, ML-optimized integration grids, 
  MM, NACMEs, nearIR, NEB, NEB-TS, NL-DFT gradient (VV10), 2- and 3-layer-ONIOM, interface openCOSMO-RS, QMMM,   
  Crystal-QMMM, SF, symmetry and pop. for TD-DFT, r2SCAN hybrids, SOLVATOR                                   
                                                                         
[Other institutions]                                                     
  V. Asgeirsson          : NEB                                           
  Christoph Bannwarth    : sTDA-DFT, sTD-DFT, PBEh-3c, B97-3c, D3        
  Sebastian Ehlert       : rSCAN, r2SCAN, r2SCAN-3c, D4, dhf basis sets  
  Marvin Friede          : D4 for Fr, Ra, Ac-Lr                          
  Lars Goerigk           : TD-DFT with DH, B97 family of functionals     
  Stefan Grimme          : VdW corrections, initial TS optimization, DFT functionals, gCP, sTDA/sTD-DF 
  Waldemar Hujo          : DFT-NL                                        
  H. Jonsson             : NEB                                           
  Holger Kruse           : gCP                                           
  Marcel Mueller         : wB97X-3c, vDZP basis set                      
  Hagen Neugebauer       : wr2SCAN                                       
  Tobias Risthaus        : range-separated hybrid DFT                    
  Lukas Wittmann         : regularized MP2, r2SCAN double-hybrids, wr2SCAN        
                                                                         
We gratefully acknowledge several colleagues who have allowed us to      
interface, adapt or use parts of their codes:                            
  Ed Valeev, F. Pavosevic, A. Kumar             : LibInt (2-el integral package), F12 methods 
  Garnet Chan, S. Sharma, J. Yang, R. Olivares  : DMRG                   
  Ulf Ekstrom                                   : XCFun DFT Library      
  Mihaly Kallay                                 : mrcc  (arbitrary order and MRCC methods)
  Frank Weinhold                                : gennbo (NPA and NBO analysis)           
  Simon Mueller                                 : openCOSMO-RS                            
  Christopher J. Cramer and Donald G. Truhlar   : smd solvation model                     
  S Lehtola, MJT Oliveira, MAL Marques          : LibXC Library                           
  Liviu Ungur et al                             : ANISO software                          


 Your calculation uses the libint2 library for the computation of 2-el integrals
 For citations please refer to: http://libint.valeyev.net

 Your ORCA version has been built with support for libXC version: 6.2.2
 For citations please refer to: https://libxc.gitlab.io

 This ORCA versions uses:
   CBLAS   interface :  Fast vector & matrix operations
   LAPACKE interface :  Fast linear algebra routines
   SCALAPACK package :  Parallel linear algebra routines
   Shared memory     :  Shared parallel matrices


Your calculation utilizes the atom-pairwise dispersion correction
with the Becke-Johnson damping scheme (D3BJ)


Warning: RI is on but no J-basis has been assigned. Assigning Def2/J (nothing to worry about!)
================================================================================

----- Orbital basis set information -----
Your calculation utilizes the basis: def2-SVP
   F. Weigend and R. Ahlrichs, Phys. Chem. Chem. Phys. 7, 3297 (2005).

The basis set includes element-specific modifications.

Your calculation utilizes the basis: def2-TZVP
   F. Weigend and R. Ahlrichs, Phys. Chem. Chem. Phys. 7, 3297 (2005).

----- AuxJ basis set information -----
Your calculation utilizes the auxiliary basis: def2/J
   F. Weigend, Phys. Chem. Chem. Phys. 8, 1057 (2006).

================================================================================
                                        WARNINGS
                       Please study these warnings very carefully!
================================================================================


WARNING: Geometry Optimization
  ===> : Switching off AutoStart
         For restart on a previous wavefunction, please use MOREAD

================================================================================
                                       INPUT FILE
================================================================================
NAME = li_ec_gas.inp.txt
|  1> # avogadro generated ORCA input file 
|  2> # Basic Mode
|  3> # 
|  4> ! B3LYP D3BJ def2-SVP TightSCF Opt
|  5> 
|  6> %basis
|  7>   NewGTO Li "def2-TZVP" end
|  8> end
|  9> 
| 10> * xyz 1 1
| 11>    C       -7.81800        2.52208        0.00945
| 12>    C       -6.32525        2.42797        0.05416
| 13>    O       -8.23091        1.21282        0.37313
| 14>    H       -8.19310        2.73760       -0.99662
| 15>    H       -8.21345        3.26511        0.70716
| 16>    O       -6.08168        1.06786       -0.27375
| 17>    H       -5.92422        2.62098        1.05478
| 18>    H       -5.84012        3.09611       -0.66242
| 19>    C       -7.20446        0.37947        0.06024
| 20>    O       -7.28147       -0.84819        0.07737
| 21>   Li       -7.38145       -2.67181        0.10100
| 22> *
| 23> 
| 24>                          ****END OF INPUT****
================================================================================

                       *****************************
                       * Geometry Optimization Run *
                       *****************************

Geometry optimization settings:
Update method            Update   .... BFGS
Choice of coordinates    CoordSys .... (2022) Redundant Internals
Initial Hessian          InHess   .... Almloef's Model
Max. no of cycles        MaxIter  .... 50

Convergence Tolerances:
Energy Change            TolE     ....  5.0000e-06 Eh
Max. Gradient            TolMAXG  ....  3.0000e-04 Eh/bohr
RMS Gradient             TolRMSG  ....  1.0000e-04 Eh/bohr
Max. Displacement        TolMAXD  ....  4.0000e-03 bohr
RMS Displacement         TolRMSD  ....  2.0000e-03 bohr
Strict Convergence                .... False

------------------------------------------------------------------------------
                        ORCA OPTIMIZATION COORDINATE SETUP
------------------------------------------------------------------------------

The optimization will be done in redundant internal coordinates (2022)
Making redundant internal coordinates   ...  (2022 redundants) done
Evaluating the initial hessian          ...  (Almloef) done
Evaluating the coordinates              ...  done
Calculating the B-matrix                .... done
Calculating the G-matrix                .... done
Diagonalizing the G-matrix              .... done
The first mode is                       ....   19
The number of degrees of freedom        ....   27

    -----------------------------------------------------------------
                    Redundant Internal Coordinates


    -----------------------------------------------------------------
         Definition                    Initial Value    Approx d2E/dq
    -----------------------------------------------------------------
      1. B(C   1,C   0)                  1.4964         0.422682   
      2. B(O   2,C   0)                  1.4202         0.500865   
      3. B(H   3,C   0)                  1.0951         0.353368   
      4. B(H   4,C   0)                  1.0933         0.355780   
      5. B(O   5,C   1)                  1.4201         0.500974   
      6. B(H   6,C   1)                  1.0951         0.353372   
      7. B(H   7,C   1)                  1.0933         0.355794   
      8. B(C   8,O   5)                  1.3587         0.627788   
      9. B(C   8,O   2)                  1.3587         0.627867   
     10. B(O   9,C   8)                  1.2302         1.006557   
     11. B(Li 10,O   9)                  1.8265         0.546370   
     12. A(O   2,C   0,H   4)          110.9749         0.337716   
     13. A(C   1,C   0,H   3)          112.4272         0.329958   
     14. A(H   3,C   0,H   4)          109.1859         0.289431   
     15. A(C   1,C   0,H   4)          112.6130         0.330329   
     16. A(O   2,C   0,H   3)          108.4873         0.337334   
     17. A(C   1,C   0,O   2)          102.9681         0.388007   
     18. A(C   0,C   1,O   5)          102.9695         0.388022   
     19. A(H   6,C   1,H   7)          109.1883         0.289433   
     20. A(O   5,C   1,H   7)          110.9688         0.337731   
     21. A(C   0,C   1,H   7)          112.6216         0.330331   
     22. A(O   5,C   1,H   6)          108.4794         0.337347   
     23. A(C   0,C   1,H   6)          112.4279         0.329959   
     24. A(C   0,O   2,C   8)          106.6681         0.413332   
     25. A(C   1,O   5,C   8)          106.6635         0.413339   
     26. A(O   2,C   8,O   5)          111.7251         0.430344   
     27. A(O   5,C   8,O   9)          124.1086         0.468826   
     28. A(O   2,C   8,O   9)          124.1663         0.468837   
     29. L(C   8,O   9,Li 10,O   5, 2) 179.8484         0.497919   
     30. L(C   8,O   9,Li 10,O   5, 1) 179.5514         0.497919   
     31. D(O   5,C   1,C   0,H   4)    149.3635         0.014132   
     32. D(O   5,C   1,C   0,H   3)    -86.7849         0.014132   
     33. D(H   6,C   1,C   0,H   3)    156.6680         0.014132   
     34. D(H   6,C   1,C   0,H   4)     32.8164         0.014132   
     35. D(H   6,C   1,C   0,O   2)    -86.7767         0.014132   
     36. D(O   5,C   1,C   0,O   2)     29.7704         0.014132   
     37. D(C   8,O   2,C   0,C   1)    -24.4678         0.019835   
     38. D(C   8,O   2,C   0,H   4)   -145.1883         0.019835   
     39. D(C   8,O   2,C   0,H   3)     94.8590         0.019835   
     40. D(C   8,O   5,C   1,H   7)   -145.2290         0.019844   
     41. D(C   8,O   5,C   1,H   6)     94.8241         0.019844   
     42. D(C   8,O   5,C   1,C   0)    -24.5006         0.019844   
     43. D(O   2,C   8,O   5,C   1)     10.0395         0.028969   
     44. D(O   9,C   8,O   2,C   0)   -170.0332         0.028977   
     45. D(O   5,C   8,O   2,C   0)      9.9840         0.028977   
     46. D(O   9,C   8,O   5,C   1)   -169.9433         0.028969   
    -----------------------------------------------------------------

Number of atoms                         .... 11
Number of degrees of freedom            .... 46


         *************************************************************
         *                GEOMETRY OPTIMIZATION CYCLE   1            *
         *************************************************************
---------------------------------
CARTESIAN COORDINATES (ANGSTROEM)
---------------------------------
  C     -7.818000    2.522080    0.009450
  C     -6.325250    2.427970    0.054160
  O     -8.230910    1.212820    0.373130
  H     -8.193100    2.737600   -0.996620
  H     -8.213450    3.265110    0.707160
  O     -6.081680    1.067860   -0.273750
  H     -5.924220    2.620980    1.054780
  H     -5.840120    3.096110   -0.662420
  C     -7.204460    0.379470    0.060240
  O     -7.281470   -0.848190    0.077370
  Li    -7.381450   -2.671810    0.101000

----------------------------
CARTESIAN COORDINATES (A.U.)
----------------------------
  NO LB      ZA    FRAG     MASS         X           Y           Z
   0 C     6.0000    0    12.011  -14.773879    4.766040    0.017858
   1 C     6.0000    0    12.011  -11.952990    4.588198    0.102348
   2 O     8.0000    0    15.999  -15.554166    2.291898    0.705114
   3 H     1.0000    0     1.008  -15.482715    5.173314   -1.883339
   4 H     1.0000    0     1.008  -15.521171    6.170164    1.336339
   5 O     8.0000    0    15.999  -11.492710    2.017963   -0.517313
   6 H     1.0000    0     1.008  -11.195153    4.952934    1.993245
   7 H     1.0000    0     1.008  -11.036227    5.850800   -1.251792
   8 C     6.0000    0    12.011  -13.614456    0.717094    0.113837
   9 O     8.0000    0    15.999  -13.759984   -1.602847    0.146208
  10 Li    3.0000    0     6.941  -13.948919   -5.048989    0.190862

--------------------------------
INTERNAL COORDINATES (ANGSTROEM)
--------------------------------
 C      0   0   0     0.000000000000     0.00000000     0.00000000
 C      1   0   0     1.496381715573     0.00000000     0.00000000
 O      1   2   0     1.420182931210   102.96805071     0.00000000
 H      1   2   3     1.095137308880   112.42715201   243.44467379
 H      1   2   3     1.093285656862   112.61302323   119.59307613
 O      2   1   3     1.420123418968   102.96947247    29.77037870
 H      2   1   3     1.095133921217   112.42785227   273.22329285
 H      2   1   3     1.093274472811   112.62164975   149.36133416
 C      3   1   2     1.358665513325   106.66810223   335.53217668
 O      9   3   1     1.230192282775   124.16628730   189.96679416
 Li    10   9   3     1.826511506041   179.54519880   189.58333386

---------------------------
INTERNAL COORDINATES (A.U.)
---------------------------
 C      0   0   0     0.000000000000     0.00000000     0.00000000
 C      1   0   0     2.827751634239     0.00000000     0.00000000
 O      1   2   0     2.683756800056   102.96805071     0.00000000
 H      1   2   3     2.069509592822   112.42715201   243.44467379
 H      1   2   3     2.066010477613   112.61302323   119.59307613
 O      2   1   3     2.683644338217   102.96947247    29.77037870
 H      2   1   3     2.069503191067   112.42785227   273.22329285
 H      2   1   3     2.065989342820   112.62164975   149.36133416
 C      3   1   2     2.567505727789   106.66810223   335.53217668
 O      9   3   1     2.324726506509   124.16628730   189.96679416
 Li    10   9   3     3.451606526873   179.54519880   189.58333386

---------------------
BASIS SET INFORMATION
---------------------
There are 4 groups of distinct atoms

 Group   1 Type C   : 7s4p1d contracted to 3s2p1d pattern {511/31/1}
 Group   2 Type O   : 7s4p1d contracted to 3s2p1d pattern {511/31/1}
 Group   3 Type H   : 4s1p contracted to 2s1p pattern {31/1}
 Group   4 Type Li  : 11s3p contracted to 5s3p pattern {62111/111}

Atom   0C    basis set group =>   1
Atom   1C    basis set group =>   1
Atom   2O    basis set group =>   2
Atom   3H    basis set group =>   3
Atom   4H    basis set group =>   3
Atom   5O    basis set group =>   2
Atom   6H    basis set group =>   3
Atom   7H    basis set group =>   3
Atom   8C    basis set group =>   1
Atom   9O    basis set group =>   2
Atom  10Li   basis set group =>   4
---------------------------------
AUXILIARY/J BASIS SET INFORMATION
---------------------------------
There are 4 groups of distinct atoms

 Group   1 Type C   : 12s5p4d2f1g contracted to 6s4p3d1f1g pattern {711111/2111/211/2/1}
 Group   2 Type O   : 12s5p4d2f1g contracted to 6s4p3d1f1g pattern {711111/2111/211/2/1}
 Group   3 Type H   : 5s2p1d contracted to 3s1p1d pattern {311/2/1}
 Group   4 Type Li  : 12s5p4d2f1g contracted to 6s4p3d1f1g pattern {711111/2111/211/2/1}

Atom   0C    basis set group =>   1
Atom   1C    basis set group =>   1
Atom   2O    basis set group =>   2
Atom   3H    basis set group =>   3
Atom   4H    basis set group =>   3
Atom   5O    basis set group =>   2
Atom   6H    basis set group =>   3
Atom   7H    basis set group =>   3
Atom   8C    basis set group =>   1
Atom   9O    basis set group =>   2
Atom  10Li   basis set group =>   4
------------------------------------------------------------------------------
                             ORCA STARTUP CALCULATIONS
                           -- RI-GTO INTEGRALS CHOSEN --
------------------------------------------------------------------------------
------------------------------------------------------------------------------
                   ___                                                        
                  /   \      - P O W E R E D   B Y -                         
                 /     \                                                     
                 |  |  |   _    _      __       _____    __    __             
                 |  |  |  | |  | |    /  \     |  _  \  |  |  /  |          
                  \  \/   | |  | |   /    \    | | | |  |  | /  /          
                 / \  \   | |__| |  /  /\  \   | |_| |  |  |/  /          
                |  |  |   |  __  | /  /__\  \  |    /   |      \           
                |  |  |   | |  | | |   __   |  |    \   |  |\   \          
                \     /   | |  | | |  |  |  |  | |\  \  |  | \   \       
                 \___/    |_|  |_| |__|  |__|  |_| \__\ |__|  \__/        
                                                                              
                      - O R C A' S   B I G   F R I E N D -                    
                                      &                                       
                       - I N T E G R A L  F E E D E R -                       
                                                                              
 v1 FN, 2020, v2 2021, v3 2022-2024                                           
------------------------------------------------------------------------------


----------------------
SHARK INTEGRAL PACKAGE
----------------------

Number of atoms                             ...     11
Number of basis functions                   ...    118
Number of shells                            ...     56
Maximum angular momentum                    ...      2
Integral batch strategy                     ... SHARK/LIBINT Hybrid
RI-J (if used) integral strategy            ... SPLIT-RIJ (Revised 2003 algorithm where possible)
Printlevel                                  ...      1
Contraction scheme used                     ... SEGMENTED contraction
Prescreening option                         ... SCHWARTZ
   Thresh                                   ... 2.500e-11
   Tcut                                     ... 2.500e-12
   Tpresel                                  ... 2.500e-12 
Coulomb Range Separation                    ... NOT USED
Exchange Range Separation                   ... NOT USED
Multipole approximations                    ... NOT USED
Finite Nucleus Model                        ... NOT USED
CABS basis                                  ... NOT available
Auxiliary Coulomb fitting basis             ... AVAILABLE
   # of basis functions in Aux-J            ...    387
   # of shells in Aux-J                     ...    125
   Maximum angular momentum in Aux-J        ...      4
Auxiliary J/K fitting basis                 ... NOT available
Auxiliary Correlation fitting basis         ... NOT available
Auxiliary 'external' fitting basis          ... NOT available

Checking pre-screening integrals            ... done (  0.0 sec) Dimension = 56
Check shell pair data                       ... done (  0.0 sec)
Shell pair information
Shell pair cut-off parameter TPreSel        ...   2.5e-12
Total number of shell pairs                 ...      1596
Shell pairs after pre-screening             ...      1479
Total number of primitive shell pairs       ...      5777
Primitive shell pairs kept                  ...      4100
          la=0 lb=0:    448 shell pairs
          la=1 lb=0:    548 shell pairs
          la=1 lb=1:    180 shell pairs
          la=2 lb=0:    172 shell pairs
          la=2 lb=1:    110 shell pairs
          la=2 lb=2:     21 shell pairs

Calculating one electron integrals          ... done (  0.0 sec)
Calculating RI/J V-Matrix + Cholesky decomp.... done (  0.0 sec)
Calculating Nuclear repulsion               ... done (  0.0 sec) ENN=    267.890035448721 Eh

Diagonalization of the overlap matrix:
Smallest eigenvalue                        ... 2.625e-03
Time for diagonalization                   ...    0.001 sec
Threshold for overlap eigenvalues          ... 1.000e-07
Number of eigenvalues below threshold      ... 0
Time for construction of square roots      ...    0.000 sec
Total time needed                          ...    0.002 sec

-------------------
DFT GRID GENERATION
-------------------

General Integration Accuracy     IntAcc      ... 4.388
Radial Grid Type                 RadialGrid  ... OptM3 with GC (2021)
Angular Grid (max. ang.)         AngularGrid ... 4 (Lebedev-302)
Angular grid pruning method      GridPruning ... 4 (adaptive)
Weight generation scheme         WeightScheme... mBecke (2022)
Basis function cutoff            BFCut       ... 1.0000e-11
Integration weight cutoff        WCut        ... 1.0000e-14
Partially contracted basis set               ... off
Rotationally invariant grid construction     ... off
Angular grids for H and He will be reduced by one unit

Total number of grid points                  ...    55171
Total number of batches                      ...      867
Average number of points per batch           ...       63
Average number of grid points per atom       ...     5016

--------------------
COSX GRID GENERATION
--------------------

GRIDX 1
-------
General Integration Accuracy     IntAcc      ... 3.816
Radial Grid Type                 RadialGrid  ... OptM3 with GC (2021)
Angular Grid (max. ang.)         AngularGrid ... 1 (Lebedev-50)
Angular grid pruning method      GridPruning ... 4 (adaptive)
Weight generation scheme         WeightScheme... mBecke (2022)
Basis function cutoff            BFCut       ... 1.0000e-11
Integration weight cutoff        WCut        ... 1.0000e-14
Partially contracted basis set               ... on
Rotationally invariant grid construction     ... off
Angular grids for H and He will be reduced by one unit

Total number of grid points                  ...     7030
Total number of batches                      ...       62
Average number of points per batch           ...      113
Average number of grid points per atom       ...      639
UseSFitting                                  ... on

GRIDX 2
-------
General Integration Accuracy     IntAcc      ... 4.020
Radial Grid Type                 RadialGrid  ... OptM3 with GC (2021)
Angular Grid (max. ang.)         AngularGrid ... 2 (Lebedev-110)
Angular grid pruning method      GridPruning ... 4 (adaptive)
Weight generation scheme         WeightScheme... mBecke (2022)
Basis function cutoff            BFCut       ... 1.0000e-11
Integration weight cutoff        WCut        ... 1.0000e-14
Partially contracted basis set               ... on
Rotationally invariant grid construction     ... off
Angular grids for H and He will be reduced by one unit

Total number of grid points                  ...    15819
Total number of batches                      ...      130
Average number of points per batch           ...      121
Average number of grid points per atom       ...     1438
UseSFitting                                  ... on

GRIDX 3
-------
General Integration Accuracy     IntAcc      ... 4.338
Radial Grid Type                 RadialGrid  ... OptM3 with GC (2021)
Angular Grid (max. ang.)         AngularGrid ... 3 (Lebedev-194)
Angular grid pruning method      GridPruning ... 4 (adaptive)
Weight generation scheme         WeightScheme... mBecke (2022)
Basis function cutoff            BFCut       ... 1.0000e-11
Integration weight cutoff        WCut        ... 1.0000e-14
Partially contracted basis set               ... on
Rotationally invariant grid construction     ... off
Angular grids for H and He will be reduced by one unit

Total number of grid points                  ...    34954
Total number of batches                      ...      278
Average number of points per batch           ...      125
Average number of grid points per atom       ...     3178
UseSFitting                                  ... on
Initializing property integral containers    ... done (  0.0 sec)

SHARK setup successfully completed in   0.5 seconds

Maximum memory used throughout the entire STARTUP-calculation: 22.6 MB
-------------------------------------------------------------------------------
                                 ORCA GUESS
                   Start orbitals & Density for SCF / CASSCF
-------------------------------------------------------------------------------

------------
SCF SETTINGS
------------
Hamiltonian:
 Density Functional     Method          .... DFT(GTOs)
 Exchange Functional    Exchange        .... B88
   X-Alpha parameter    XAlpha          ....  0.666667
   Becke's b parameter  XBeta           ....  0.004200
 Correlation Functional Correlation     .... LYP
 LDA part of GGA corr.  LDAOpt          .... VWN-5
 Gradients option       PostSCFGGA      .... off
 Hybrid DFT is turned on
   Fraction HF Exchange ScalHFX         ....  0.200000
   Scaling of DF-GGA-X  ScalDFX         ....  0.720000
   Scaling of DF-GGA-C  ScalDFC         ....  0.810000
   Scaling of DF-LDA-C  ScalLDAC        ....  1.000000
   Perturbative correction              ....  0.000000
   NL short-range parameter             ....  4.800000
 RI-approximation to the Coulomb term is turned on
   Number of AuxJ basis functions       .... 387
   RIJ-COSX (HFX calculated with COS-X)).... on


General Settings:
 Integral files         IntName         .... li_ec_gas.inp
 Hartree-Fock type      HFTyp           .... RHF
 Total Charge           Charge          ....    1
 Multiplicity           Mult            ....    1
 Number of Electrons    NEL             ....   48
 Basis Dimension        Dim             ....  118
 Nuclear Repulsion      ENuc            ....    267.8900354487 Eh

Convergence Acceleration:
 AO-DIIS                CNVDIIS         .... on
   Start iteration      DIISMaxIt       ....    12
   Startup error        DIISStart       ....  0.200000
   # of expansion vecs  DIISMaxEq       ....     5
   Bias factor          DIISBfac        ....   1.050
   Max. coefficient     DIISMaxC        ....  10.000
 MO-DIIS                CNVKDIIS        .... off
 Trust-Rad. Augm. Hess. CNVTRAH         .... auto
   Auto Start mean grad. ratio tolernc. ....  1.125000
   Auto Start start iteration           ....    50
   Auto Start num. interpolation iter.  ....    10
   Max. Number of Micro iterations      ....    24
   Max. Number of Macro iterations      .... Maxiter - #DIIS iter
   Number of Davidson start vectors     ....     2
   Converg. threshold    (grad. norm)   ....   1.000e-05
   Grad. Scal. Fac. for Micro threshold ....   0.100
   Minimum threshold for Micro iter.    ....   1.000e-02
   NR start threshold (gradient norm)   ....   1.000e-04
   Initial trust radius                 ....   0.400
   Minimum AH scaling param. (alpha)    ....   1.000
   Maximum AH scaling param. (alpha)    .... 1000.000
   Quad. conv. algorithm                .... NR
   White noise on init. David. guess    .... on
   Maximum white noise                  ....   0.010
   Pseudo random numbers                .... off
   Inactive MOs                         .... canonical
   Orbital update algorithm             .... Taylor
   Preconditioner                       .... Diag
   Full preconditioner red. dimension   ....   250
 SOSCF                  CNVSOSCF        .... on
   Start iteration      SOSCFMaxIt      ....   150
   Startup grad/error   SOSCFStart      ....  0.003300
   Hessian update       SOSCFHessUp     .... L-BFGS
 Level Shifting         CNVShift        .... on
   Level shift para.    LevelShift      ....    0.2500
   Turn off err/grad.   ShiftErr        ....    0.0010
 Zerner damping         CNVZerner       .... off
 Static damping         CNVDamp         .... on
   Fraction old density DampFac         ....    0.7000
   Max. Damping (<1)    DampMax         ....    0.9800
   Min. Damping (>=0)   DampMin         ....    0.0000
   Turn off err/grad.   DampErr         ....    0.1000

SCF Procedure:
 Maximum # iterations   MaxIter         ....   125
 SCF integral mode      SCFMode         .... Direct
   Integral package                     .... SHARK and LIBINT hybrid scheme
 Reset frequency        DirectResetFreq ....    20
 Integral Threshold     Thresh          ....  2.500e-11 Eh
 Primitive CutOff       TCut            ....  2.500e-12 Eh

Convergence Tolerance:
 Convergence Check Mode ConvCheckMode   .... Total+1el-Energy
 Convergence forced     ConvForced      .... 0
 Energy Change          TolE            ....  1.000e-08 Eh
 1-El. energy change                    ....  1.000e-05 Eh
 Orbital Gradient       TolG            ....  1.000e-05
 Orbital Rotation angle TolX            ....  1.000e-05
 DIIS Error             TolErr          ....  5.000e-07

------------------------------
INITIAL GUESS: MODEL POTENTIAL
------------------------------
Loading Hartree-Fock densities                     ... done
Calculating cut-offs                               ... done
Initializing the effective Hamiltonian             ... done
Setting up the integral package (SHARK)            ... done
Starting the Coulomb interaction                   ... done (   0.0 sec)
Making the grid                                    ... done (   0.1 sec)
Mapping shells                                     ... done
Starting the XC term evaluation                    ... done (   0.1 sec)
  promolecular density results
     # of electrons  =     48.998820780
     EX              =    -43.020164184
     EC              =     -1.689828085
     EX+EC           =    -44.709992268
Transforming the Hamiltonian                       ... done (   0.0 sec)
Diagonalizing the Hamiltonian                      ... done (   0.0 sec)
Back transforming the eigenvectors                 ... done (   0.0 sec)
Now organizing SCF variables                       ... done
                      ------------------
                      INITIAL GUESS DONE (   0.1 sec)
                      ------------------
             **** ENERGY FILE WAS UPDATED (li_ec_gas.inp.en.tmp) ****
Finished Guess after   0.2 sec
Maximum memory used throughout the entire GUESS-calculation: 11.7 MB

-------------------------------------------------------------------------------------------
                                      ORCA LEAN-SCF
                              memory conserving SCF solver
-------------------------------------------------------------------------------------------

----------------------------------------D-I-I-S--------------------------------------------
Iteration    Energy (Eh)           Delta-E    RMSDP     MaxDP     DIISErr   Damp  Time(sec)
-------------------------------------------------------------------------------------------
               ***  Starting incremental Fock matrix formation  ***
    1    -349.1530358882940277     0.00e+00  4.13e-03  1.03e-01  2.83e-01  0.700   1.0
    2    -349.2418692719192563    -8.88e-02  2.26e-03  5.58e-02  1.06e-01  0.700   0.6
                               ***Turning on AO-DIIS***
    3    -349.2701821381498917    -2.83e-02  7.73e-04  1.24e-02  2.41e-02  0.700   0.6
    4    -349.2893607698301253    -1.92e-02  1.39e-03  2.23e-02  1.05e-02  0.000   0.5
    5    -349.3336174261945075    -4.43e-02  2.16e-04  4.18e-03  3.79e-03  0.000   0.6
                              *** Initializing SOSCF ***
---------------------------------------S-O-S-C-F--------------------------------------
Iteration    Energy (Eh)           Delta-E    RMSDP     MaxDP     MaxGrad    Time(sec)
--------------------------------------------------------------------------------------
    6    -349.3337325516752685    -1.15e-04  9.29e-05  1.52e-03  2.00e-03     0.5
               *** Restarting incremental Fock matrix formation ***
    7    -349.3336567325240480     7.58e-05  8.00e-05  1.95e-03  3.85e-04     1.0
    8    -349.3336490350787358     7.70e-06  5.17e-05  1.32e-03  9.30e-04     0.9
    9    -349.3336608567685175    -1.18e-05  1.10e-05  2.91e-04  7.26e-05     0.8
   10    -349.3336607578045800     9.90e-08  6.58e-06  1.87e-04  9.71e-05     0.8
   11    -349.3336609283745133    -1.71e-07  9.40e-07  1.62e-05  6.39e-06     0.7
   12    -349.3336609314803241    -3.11e-09  4.50e-07  9.40e-06  4.42e-06     0.6
                 **** Energy Check signals convergence ****

               *****************************************************
               *                     SUCCESS                       *
               *           SCF CONVERGED AFTER  12 CYCLES          *
               *****************************************************

Recomputing exchange energy using gridx3       ... done (    1.712 sec)
Old exchange energy                            :     -8.653045899 Eh
New exchange energy                            :     -8.653087428 Eh
Exchange energy change after final integration :     -0.000041529 Eh
Total energy after final integration           :   -349.333702460 Eh
             **** ENERGY FILE WAS UPDATED (li_ec_gas.inp.en.tmp) ****

----------------
TOTAL SCF ENERGY
----------------

Total Energy       :       -349.33370246020695 Eh           -9505.85331 eV

Components:
Nuclear Repulsion  :        267.89003544872133 Eh            7289.65846 eV
Electronic Energy  :       -617.22369638020166 Eh          -16795.51065 eV
One Electron Energy:       -999.68204808400981 Eh          -27202.73149 eV
Two Electron Energy:        382.45835170380815 Eh           10407.22084 eV

Virial components:
Potential Energy   :       -695.87740850728096 Eh          -18935.78696 eV
Kinetic Energy     :        346.54370604707401 Eh            9429.93365 eV
Virial Ratio       :          2.00805092219091

DFT components:
N(Alpha)           :       23.999990793571 electrons
N(Beta)            :       23.999990793571 electrons
N(Total)           :       47.999981587141 electrons
E(X)               :      -34.438246425450 Eh       
E(C)               :       -1.968614355070 Eh       
E(XC)              :      -36.406860780521 Eh       

---------------
SCF CONVERGENCE
---------------

  Last Energy change         ...    3.1058e-09  Tolerance :   1.0000e-08
  Last MAX-Density change    ...    9.3955e-06  Tolerance :   1.0000e-07
  Last RMS-Density change    ...    4.4982e-07  Tolerance :   5.0000e-09
  Last DIIS Error            ...    2.0003e-03  Tolerance :   5.0000e-07
  Last Orbital Gradient      ...    4.4197e-06  Tolerance :   1.0000e-05
  Last Orbital Rotation      ...    3.1973e-06  Tolerance :   1.0000e-05


----------------
ORBITAL ENERGIES
----------------

  NO   OCC          E(Eh)            E(eV) 
   0   2.0000     -19.358170      -526.7626 
   1   2.0000     -19.358047      -526.7592 
   2   2.0000     -19.326991      -525.9142 
   3   2.0000     -10.555315      -287.2247 
   4   2.0000     -10.401235      -283.0320 
   5   2.0000     -10.401083      -283.0279 
   6   2.0000      -2.227716       -60.6192 
   7   2.0000      -1.321293       -35.9542 
   8   2.0000      -1.211996       -32.9801 
   9   2.0000      -1.204529       -32.7769 
  10   2.0000      -0.929906       -25.3040 
  11   2.0000      -0.829469       -22.5710 
  12   2.0000      -0.771667       -20.9981 
  13   2.0000      -0.704307       -19.1652 
  14   2.0000      -0.703799       -19.1513 
  15   2.0000      -0.652838       -17.7646 
  16   2.0000      -0.644737       -17.5442 
  17   2.0000      -0.600573       -16.3424 
  18   2.0000      -0.592767       -16.1300 
  19   2.0000      -0.546152       -14.8615 
  20   2.0000      -0.525475       -14.2989 
  21   2.0000      -0.505169       -13.7463 
  22   2.0000      -0.489904       -13.3310 
  23   2.0000      -0.464815       -12.6482 
  24   0.0000      -0.190306        -5.1785 
  25   0.0000      -0.172418        -4.6917 
  26   0.0000      -0.120484        -3.2785 
  27   0.0000      -0.112015        -3.0481 
  28   0.0000      -0.099190        -2.6991 
  29   0.0000      -0.062367        -1.6971 
  30   0.0000      -0.042538        -1.1575 
  31   0.0000      -0.041651        -1.1334 
  32   0.0000      -0.016560        -0.4506 
  33   0.0000      -0.012148        -0.3306 
  34   0.0000       0.016150         0.4395 
*Only the first 10 virtual orbitals were printed.

                    ********************************
                    * MULLIKEN POPULATION ANALYSIS *
                    ********************************

-----------------------
MULLIKEN ATOMIC CHARGES
-----------------------
   0 C :    0.166916
   1 C :    0.167049
   2 O :   -0.268776
   3 H :    0.067649
   4 H :    0.077916
   5 O :   -0.269186
   6 H :    0.067502
   7 H :    0.077817
   8 C :    0.442262
   9 O :   -0.376823
  10 Li:    0.847673
Sum of atomic charges:    1.0000000

--------------------------------
MULLIKEN REDUCED ORBITAL CHARGES
--------------------------------
  0 C s       :     3.014920  s :     3.014920
      pz      :     1.044360  p :     2.758367
      px      :     0.960811
      py      :     0.753197
      dz2     :     0.010959  d :     0.059797
      dxz     :     0.006977
      dyz     :     0.013330
      dx2y2   :     0.017454
      dxy     :     0.011077

  1 C s       :     3.014740  s :     3.014740
      pz      :     1.049892  p :     2.758405
      px      :     0.989755
      py      :     0.718757
      dz2     :     0.010869  d :     0.059806
      dxz     :     0.007156
      dyz     :     0.012981
      dx2y2   :     0.018715
      dxy     :     0.010085

  2 O s       :     3.771492  s :     3.771492
      pz      :     1.698125  p :     4.478796
      px      :     1.537248
      py      :     1.243424
      dz2     :     0.002449  d :     0.018488
      dxz     :     0.003294
      dyz     :     0.002889
      dx2y2   :     0.003553
      dxy     :     0.006304

  3 H s       :     0.910561  s :     0.910561
      pz      :     0.013672  p :     0.021790
      px      :     0.005161
      py      :     0.002957

  4 H s       :     0.899689  s :     0.899689
      pz      :     0.008787  p :     0.022395
      px      :     0.005489
      py      :     0.008119

  5 O s       :     3.771547  s :     3.771547
      pz      :     1.699273  p :     4.479153
      px      :     1.496330
      py      :     1.283550
      dz2     :     0.002448  d :     0.018485
      dxz     :     0.003421
      dyz     :     0.002732
      dx2y2   :     0.004784
      dxy     :     0.005100

  6 H s       :     0.910709  s :     0.910709
      pz      :     0.013581  p :     0.021789
      px      :     0.005549
      py      :     0.002660

  7 H s       :     0.899787  s :     0.899787
      pz      :     0.009089  p :     0.022396
      px      :     0.006454
      py      :     0.006853

  8 C s       :     2.984614  s :     2.984614
      pz      :     0.786450  p :     2.408004
      px      :     0.794493
      py      :     0.827062
      dz2     :     0.012078  d :     0.165119
      dxz     :     0.016960
      dyz     :     0.033899
      dx2y2   :     0.040606
      dxy     :     0.061576

  9 O s       :     3.733209  s :     3.733209
      pz      :     1.583294  p :     4.631189
      px      :     1.772458
      py      :     1.275437
      dz2     :     0.001372  d :     0.012425
      dxz     :     0.000041
      dyz     :     0.003832
      dx2y2   :     0.004351
      dxy     :     0.002829

 10 Lis       :     2.041037  s :     2.041037
      pz      :     0.023837  p :     0.111290
      px      :     0.032081
      py      :     0.055373



                     *******************************
                     * LOEWDIN POPULATION ANALYSIS *
                     *******************************

----------------------
LOEWDIN ATOMIC CHARGES
----------------------
   0 C :    0.093492
   1 C :    0.093449
   2 O :   -0.054598
   3 H :    0.038996
   4 H :    0.051132
   5 O :   -0.054878
   6 H :    0.038938
   7 H :    0.051107
   8 C :    0.205779
   9 O :   -0.190343
  10 Li:    0.726926

-------------------------------
LOEWDIN REDUCED ORBITAL CHARGES
-------------------------------
  0 C s       :     2.846844  s :     2.846844
      pz      :     1.077037  p :     2.923402
      px      :     1.017183
      py      :     0.829182
      dz2     :     0.025396  d :     0.136262
      dxz     :     0.014922
      dyz     :     0.030773
      dx2y2   :     0.041522
      dxy     :     0.023649

  1 C s       :     2.846822  s :     2.846822
      pz      :     1.081383  p :     2.923444
      px      :     1.037902
      py      :     0.804159
      dz2     :     0.025055  d :     0.136285
      dxz     :     0.016039
      dyz     :     0.029492
      dx2y2   :     0.044517
      dxy     :     0.021181

  2 O s       :     3.469500  s :     3.469500
      pz      :     1.686072  p :     4.551766
      px      :     1.575328
      py      :     1.290366
      dz2     :     0.003889  d :     0.033331
      dxz     :     0.004019
      dyz     :     0.005339
      dx2y2   :     0.006655
      dxy     :     0.013429

  3 H s       :     0.894037  s :     0.894037
      pz      :     0.040813  p :     0.066967
      px      :     0.015844
      py      :     0.010310

  4 H s       :     0.882099  s :     0.882099
      pz      :     0.025556  p :     0.066769
      px      :     0.016401
      py      :     0.024811

  5 O s       :     3.469503  s :     3.469503
      pz      :     1.686911  p :     4.552046
      px      :     1.541273
      py      :     1.323862
      dz2     :     0.003853  d :     0.033330
      dxz     :     0.004420
      dyz     :     0.004952
      dx2y2   :     0.009317
      dxy     :     0.010787

  6 H s       :     0.894099  s :     0.894099
      pz      :     0.040498  p :     0.066963
      px      :     0.016919
      py      :     0.009546

  7 H s       :     0.882124  s :     0.882124
      pz      :     0.026421  p :     0.066769
      px      :     0.019068
      py      :     0.021280

  8 C s       :     2.802923  s :     2.802923
      pz      :     0.805665  p :     2.648092
      px      :     0.887804
      py      :     0.954623
      dz2     :     0.024437  d :     0.343206
      dxz     :     0.032565
      dyz     :     0.065970
      dx2y2   :     0.085041
      dxy     :     0.135192

  9 O s       :     3.471397  s :     3.471397
      pz      :     1.554646  p :     4.695332
      px      :     1.739586
      py      :     1.401100
      dz2     :     0.003485  d :     0.023614
      dxz     :     0.000044
      dyz     :     0.005061
      dx2y2   :     0.010628
      dxy     :     0.004396

 10 Lis       :     2.076211  s :     2.076211
      pz      :     0.031869  p :     0.196863
      px      :     0.041358
      py      :     0.123636



                      *****************************
                      * MAYER POPULATION ANALYSIS *
                      *****************************

  NA   - Mulliken gross atomic population
  ZA   - Total nuclear charge
  QA   - Mulliken gross atomic charge
  VA   - Mayer's total valence
  BVA  - Mayer's bonded valence
  FA   - Mayer's free valence

  ATOM       NA         ZA         QA         VA         BVA        FA
  0 C      5.8331     6.0000     0.1669     3.9721     3.9721    -0.0000
  1 C      5.8330     6.0000     0.1670     3.9720     3.9720    -0.0000
  2 O      8.2688     8.0000    -0.2688     2.2455     2.2455    -0.0000
  3 H      0.9324     1.0000     0.0676     0.9780     0.9780    -0.0000
  4 H      0.9221     1.0000     0.0779     0.9834     0.9834     0.0000
  5 O      8.2692     8.0000    -0.2692     2.2449     2.2449    -0.0000
  6 H      0.9325     1.0000     0.0675     0.9780     0.9780    -0.0000
  7 H      0.9222     1.0000     0.0778     0.9835     0.9835    -0.0000
  8 C      5.5577     6.0000     0.4423     4.2230     4.2230    -0.0000
  9 O      8.3768     8.0000    -0.3768     2.1334     2.1334    -0.0000
 10 Li     2.1523     3.0000     0.8477     0.2971     0.2971     0.0000

  Mayer bond orders larger than 0.100000
B(  0-C ,  1-C ) :   1.1079 B(  0-C ,  2-O ) :   0.9017 B(  0-C ,  3-H ) :   0.9444 
B(  0-C ,  4-H ) :   0.9492 B(  1-C ,  5-O ) :   0.9016 B(  1-C ,  6-H ) :   0.9445 
B(  1-C ,  7-H ) :   0.9492 B(  2-O ,  8-C ) :   1.2053 B(  5-O ,  8-C ) :   1.2049 
B(  8-C ,  9-O ) :   1.7285 B(  9-O , 10-Li) :   0.2617 

-------
TIMINGS
-------

Total SCF time: 0 days 0 hours 0 min 10 sec 

Total time                  ....      10.410 sec
Sum of individual times     ....      10.385 sec  ( 99.8%)

SCF preparation             ....       0.026 sec  (  0.2%)
Fock matrix formation       ....      10.304 sec  ( 99.0%)
  Startup                   ....       0.002 sec  (  0.0% of F)
  Split-RI-J                ....       0.566 sec  (  5.5% of F)
  Chain of spheres X        ....       7.731 sec  ( 75.0% of F)
  XC integration            ....       1.968 sec  ( 19.1% of F)
    Basis function eval.    ....       0.844 sec  ( 42.9% of XC)
    Density eval.           ....       0.351 sec  ( 17.8% of XC)
    XC-Functional eval.     ....       0.113 sec  (  5.8% of XC)
    XC-Potential eval.      ....       0.539 sec  ( 27.4% of XC)
Diagonalization             ....       0.000 sec  (  0.0%)
Density matrix formation    ....       0.005 sec  (  0.1%)
Total Energy calculation    ....       0.004 sec  (  0.0%)
Population analysis         ....       0.003 sec  (  0.0%)
Orbital Transformation      ....       0.002 sec  (  0.0%)
Orbital Orthonormalization  ....       0.000 sec  (  0.0%)
DIIS solution               ....       0.026 sec  (  0.3%)
SOSCF solution              ....       0.014 sec  (  0.1%)
Finished LeanSCF after  10.4 sec

Maximum memory used throughout the entire LEANSCF-calculation: 12.5 MB


-------------------------------------------------------------------------------
                          DFT DISPERSION CORRECTION                            
                                                                               
                              DFTD3 V3.1  Rev 1                                
                          USING Becke-Johnson damping                          
-------------------------------------------------------------------------------
The B3LYP functional is recognized
Active option DFTDOPT                   ...         4   

molecular C6(AA) [au] = 1452.243710 


            DFT-D V3
 parameters
 s6 scaling factor         :     1.0000 
 a1 scaling factor         :     0.3981 
 s8 scaling factor         :     1.9889 
 a2 scaling factor         :     4.4211 
 ad hoc parameters k1-k3   :    16.0000     1.3333    -4.0000 

 Edisp/kcal,au: -8.304365510257  -0.013233847404 
 E6   /kcal   :  -3.876704065 
 E8   /kcal   :  -4.427661446 
 % E8         :  53.317275597 

-------------------------   ----------------
Dispersion correction           -0.013233847
-------------------------   ----------------


-------------------------   --------------------
FINAL SINGLE POINT ENERGY      -349.346936307611
-------------------------   --------------------

------------------------------------------------------------------------------
                         ORCA SCF GRADIENT CALCULATION
------------------------------------------------------------------------------

Nuc. rep. gradient        (SHARK) ... done (  0.0 sec)
HCore & Overlap gradient  (SHARK) ... done (  0.0 sec)
Split-RIJ-J gradient      (SHARK) ... done (  0.2 sec)
COSX-gradient                     ... done (  6.1 sec)
XC gradient                       ... done (  1.3 sec)
Dispersion correction             ... done (  0.0 sec)

-------------------
DISPERSION GRADIENT
-------------------

   1   C   :    0.000048811   -0.000333531    0.000006155
   2   C   :   -0.000090901   -0.000324646    0.000002761
   3   O   :   -0.000173013    0.000020009    0.000034167
   4   H   :   -0.000153766    0.000148974   -0.000106533
   5   H   :   -0.000152010    0.000181889    0.000067491
   6   O   :    0.000173391   -0.000001821   -0.000034524
   7   H   :    0.000171489    0.000131261    0.000102764
   8   H   :    0.000173645    0.000159401   -0.000072098
   9   C   :    0.000041849    0.000649087   -0.000008844
  10   O   :   -0.000024851   -0.000393335    0.000005380
  11   Li  :   -0.000014644   -0.000237285    0.000003282

Difference to translation invariance:
           :    0.0000000000   -0.0000000000    0.0000000000

Difference to rotation invariance:
           :    0.0000000000    0.0000000000    0.0000000000

Norm of the Dispersion gradient    ...    0.0010775023
RMS gradient                       ...    0.0001875691
MAX gradient                       ...    0.0006490865

------------------
CARTESIAN GRADIENT
------------------

   1   C   :    0.008128067   -0.019511663    0.001816158
   2   C   :   -0.010564804   -0.018385235   -0.001262890
   3   O   :   -0.022567603    0.036066023    0.005228660
   4   H   :    0.002746392   -0.000799350    0.004067206
   5   H   :    0.004024767    0.000802282   -0.002997319
   6   O   :    0.026887301    0.032710249   -0.006168094
   7   H   :   -0.002831022   -0.000580165   -0.004064923
   8   H   :   -0.003880550    0.001353444    0.002954123
   9   C   :   -0.000490865   -0.006728575    0.000089999
  10   O   :   -0.000752005   -0.011831761    0.000167080
  11   Li  :   -0.000699678   -0.013095250    0.000170000

Difference to translation invariance:
           :   -0.0000000000   -0.0000000001    0.0000000000

Difference to rotation invariance:
           :    0.0000233693   -0.0000208074    0.0001708938

Norm of the Cartesian gradient     ...    0.0709138573
RMS gradient                       ...    0.0123445181
MAX gradient                       ...    0.0360660232

-------
TIMINGS
-------

Total SCF gradient time     ....        7.611 sec

Densities                   ....       0.000 sec  (  0.0%)
One electron gradient       ....       0.025 sec  (  0.3%)
RI-J Coulomb gradient       ....       0.237 sec  (  3.1%)
COSX gradient               ....       6.052 sec  ( 79.5%)
XC gradient                 ....       1.266 sec  ( 16.6%)

Maximum memory used throughout the entire SCFGRAD-calculation: 28.1 MB
------------------------------------------------------------------------------
                         ORCA GEOMETRY RELAXATION STEP
------------------------------------------------------------------------------

Reading the OPT-File                    .... done
Getting information on internals        .... done
Copying old internal coords+grads       .... done
Making the new internal coordinates     .... (2022 redundants) done
Validating the new internal coordinates .... (2022 redundants) done
Calculating the B-matrix                .... done
Calculating the G,G- and P matrices     .... done
Transforming gradient to internals      .... done
Projecting the internal gradient        .... done
Number of atoms                         ....  11
Number of internal coordinates          ....  46
Current Energy                          ....  -349.346936308 Eh
Current gradient norm                   ....     0.070913857 Eh/bohr
Maximum allowed component of the step   ....  0.300
Current trust radius                    ....  0.300
Evaluating the initial hessian          ....  (Almloef) done
Projecting the Hessian                  .... done
Forming the augmented Hessian           .... done
Diagonalizing the augmented Hessian     .... done
Last element of RFO vector              ....  0.987099190
Lowest eigenvalues of augmented Hessian:
 -0.007243891  0.020332027  0.025503333  0.028972639  0.112946754
Length of the computed step             ....  0.162202474
The final length of the internal step   ....  0.162202474
Converting the step to Cartesian space:
 Initial RMS(Int)=    0.0239154501
Transforming coordinates:
 Iter   0:  RMS(Cart)=    0.0305848052 RMS(Int)=    0.0239303121
 Iter   5:  RMS(Cart)=    0.0000000533 RMS(Int)=    0.0000000383
done
Storing new coordinates                 .... done

                                .--------------------.
          ----------------------|Geometry convergence|-------------------------
          Item                value                   Tolerance       Converged
          ---------------------------------------------------------------------
          RMS gradient        0.0090810466            0.0001000000      NO
          MAX gradient        0.0276173440            0.0003000000      NO
          RMS step            0.0239154501            0.0020000000      NO
          MAX step            0.0570257859            0.0040000000      NO
          ........................................................
          Max(Bonds)      0.0252      Max(Angles)    1.36
          Max(Dihed)        3.27      Max(Improp)    0.00
          ---------------------------------------------------------------------

The optimization has not yet converged - more geometry cycles are needed


    ---------------------------------------------------------------------------
                         Redundant Internal Coordinates
                            (Angstroem and degrees)

        Definition                    Value    dE/dq     Step     New-Value
    ----------------------------------------------------------------------------
     1. B(C   1,C   0)                1.4964 -0.012999  0.0192    1.5156   
     2. B(O   2,C   0)                1.4202 -0.016722  0.0188    1.4389   
     3. B(H   3,C   0)                1.0951 -0.004835  0.0071    1.1022   
     4. B(H   4,C   0)                1.0933 -0.002823  0.0041    1.0974   
     5. B(O   5,C   1)                1.4201 -0.017039  0.0190    1.4391   
     6. B(H   6,C   1)                1.0951 -0.004854  0.0071    1.1023   
     7. B(H   7,C   1)                1.0933 -0.002831  0.0041    1.0974   
     8. B(C   8,O   5)                1.3587  0.027348 -0.0251    1.3336   
     9. B(C   8,O   2)                1.3587  0.027617 -0.0252    1.3334   
    10. B(O   9,C   8)                1.2302  0.024971 -0.0130    1.2172   
    11. B(Li 10,O   9)                1.8265  0.013115 -0.0125    1.8140   
    12. A(O   2,C   0,H   4)          110.97 -0.002594   -0.50    110.48   
    13. A(C   1,C   0,H   3)          112.43 -0.003425    0.33    112.75   
    14. A(H   3,C   0,H   4)          109.19  0.001186    0.19    109.37   
    15. A(C   1,C   0,H   4)          112.61 -0.004915    1.02    113.63   
    16. A(O   2,C   0,H   3)          108.49  0.000115   -0.20    108.29   
    17. A(C   1,C   0,O   2)          102.97  0.010044   -0.95    102.01   
    18. A(C   0,C   1,O   5)          102.97  0.011886   -1.05    101.92   
    19. A(H   6,C   1,H   7)          109.19 -0.002924    0.40    109.59   
    20. A(O   5,C   1,H   7)          110.97  0.003922   -0.75    110.22   
    21. A(C   0,C   1,H   7)          112.62 -0.006476    1.03    113.65   
    22. A(O   5,C   1,H   6)          108.48 -0.000140   -0.21    108.27   
    23. A(C   0,C   1,H   6)          112.43 -0.005186    0.43    112.85   
    24. A(C   0,O   2,C   8)          106.67 -0.007348    1.31    107.98   
    25. A(C   1,O   5,C   8)          106.66 -0.008258    1.36    108.02   
    26. A(O   2,C   8,O   5)          111.73 -0.006467    0.50    112.23   
    27. A(O   5,C   8,O   9)          124.11  0.003106   -0.24    123.87   
    28. A(O   2,C   8,O   9)          124.17  0.003361   -0.27    123.90   
    29. L(C   8,O   9,Li 10,O   5, 2) 179.85 -0.000004    0.00    179.85   
    30. L(C   8,O   9,Li 10,O   5, 1) 179.55 -0.000030    0.00    179.55   
    31. D(O   5,C   1,C   0,H   4)    149.36  0.006861   -3.27    146.10   
    32. D(O   5,C   1,C   0,H   3)    -86.78  0.001960   -1.97    -88.76   
    33. D(H   6,C   1,C   0,H   3)    156.67 -0.002321   -1.32    155.35   
    34. D(H   6,C   1,C   0,H   4)     32.82  0.002580   -2.61     30.20   
    35. D(H   6,C   1,C   0,O   2)    -86.78  0.002016   -1.95    -88.72   
    36. D(O   5,C   1,C   0,O   2)     29.77  0.006298   -2.60     27.17   
    37. D(C   8,O   2,C   0,C   1)    -24.47  0.000553    1.43    -23.04   
    38. D(C   8,O   2,C   0,H   4)   -145.19  0.001786    1.03   -144.16   
    39. D(C   8,O   2,C   0,H   3)     94.86  0.001827    1.23     96.08   
    40. D(C   8,O   5,C   1,H   7)   -145.23 -0.000212    1.16   -144.07   
    41. D(C   8,O   5,C   1,H   6)     94.82  0.001097    1.25     96.08   
    42. D(C   8,O   5,C   1,C   0)    -24.50  0.001016    1.40    -23.10   
    43. D(O   2,C   8,O   5,C   1)     10.04 -0.001778   -0.42      9.62   
    44. D(O   9,C   8,O   2,C   0)   -170.03 -0.001107   -0.42   -170.46   
    45. D(O   5,C   8,O   2,C   0)      9.98 -0.000384   -0.51      9.48   
    46. D(O   9,C   8,O   5,C   1)   -169.94 -0.001055   -0.51   -170.45   
    ----------------------------------------------------------------------------

Geometry step timings:
Preparation and reading OPT file:      0.000 s (18.199 %)
Internal coordinates            :      0.000 s ( 8.046 %)
B/P matrices and projection     :      0.000 s (14.636 %)
Hessian update/contruction      :      0.001 s (25.402 %)
Making the step                 :      0.000 s (10.536 %)
Converting the step to Cartesian:      0.000 s ( 1.648 %)
Storing new data                :      0.000 s ( 1.992 %)
Checking convergence            :      0.000 s ( 0.038 %)
Final printing                  :      0.000 s (19.080 %)
Total time                      :      0.003 s

Time for energy+gradient        :     18.964 s
Time for complete geometry iter :     19.017 s

         *************************************************************
         *                GEOMETRY OPTIMIZATION CYCLE   2            *
         *************************************************************
---------------------------------
CARTESIAN COORDINATES (ANGSTROEM)
---------------------------------
  C     -7.827148    2.530754    0.009677
  C     -6.315124    2.436589    0.055099
  O     -8.221087    1.189135    0.349626
  H     -8.209734    2.759017   -0.998510
  H     -8.245172    3.247124    0.728257
  O     -6.094609    1.047288   -0.248797
  H     -5.903654    2.640981    1.057040
  H     -5.812073    3.071210   -0.685498
  C     -7.204499    0.376109    0.060999
  O     -7.280765   -0.838550    0.077081
  Li    -7.380245   -2.649657    0.099525

----------------------------
CARTESIAN COORDINATES (A.U.)
----------------------------
  NO LB      ZA    FRAG     MASS         X           Y           Z
   0 C     6.0000    0    12.011  -14.791166    4.782431    0.018287
   1 C     6.0000    0    12.011  -11.933854    4.604486    0.104122
   2 O     8.0000    0    15.999  -15.535603    2.247140    0.660698
   3 H     1.0000    0     1.008  -15.514149    5.213786   -1.886910
   4 H     1.0000    0     1.008  -15.581117    6.136175    1.376207
   5 O     8.0000    0    15.999  -11.517142    1.979087   -0.470158
   6 H     1.0000    0     1.008  -11.156289    4.990732    1.997516
   7 H     1.0000    0     1.008  -10.983227    5.803746   -1.295403
   8 C     6.0000    0    12.011  -13.614530    0.710744    0.115272
   9 O     8.0000    0    15.999  -13.758652   -1.584631    0.145661
  10 Li    3.0000    0     6.941  -13.946642   -5.007126    0.188075

--------------------------------
INTERNAL COORDINATES (ANGSTROEM)
--------------------------------
 C      0   0   0     0.000000000000     0.00000000     0.00000000
 C      1   0   0     1.515634250963     0.00000000     0.00000000
 O      1   2   0     1.438990399061   102.01128212     0.00000000
 H      1   2   3     1.102232683169   112.74018628   244.06079486
 H      1   2   3     1.097400715560   113.63744000   118.90288241
 O      2   1   3     1.439145048004   101.91788730    27.20093549
 H      2   1   3     1.102256144806   112.83816140   271.29899221
 H      2   1   3     1.097400318520   113.65046899   145.75199521
 C      3   1   2     1.333330003653   107.97747141   336.97780219
 O      9   3   1     1.217157935996   123.90967492   189.52927786
 Li    10   9   3     1.813975427818   179.54864608   189.53497406

---------------------------
INTERNAL COORDINATES (A.U.)
---------------------------
 C      0   0   0     0.000000000000     0.00000000     0.00000000
 C      1   0   0     2.864133653510     0.00000000     0.00000000
 O      1   2   0     2.719297763568   102.01128212     0.00000000
 H      1   2   3     2.082917907047   112.74018628   244.06079486
 H      1   2   3     2.073786811578   113.63744000   118.90288241
 O      2   1   3     2.719590007716   101.91788730    27.20093549
 H      2   1   3     2.082962243116   112.83816140   271.29899221
 H      2   1   3     2.073786061281   113.65046899   145.75199521
 C      3   1   2     2.519628553044   107.97747141   336.97780219
 O      9   3   1     2.300095160761   123.90967492   189.52927786
 Li    10   9   3     3.427916772239   179.54864608   189.53497406

------------------------------------------------------------------------------
                   ___                                                        
                  /   \      - P O W E R E D   B Y -                         
                 /     \                                                     
                 |  |  |   _    _      __       _____    __    __             
                 |  |  |  | |  | |    /  \     |  _  \  |  |  /  |          
                  \  \/   | |  | |   /    \    | | | |  |  | /  /          
                 / \  \   | |__| |  /  /\  \   | |_| |  |  |/  /          
                |  |  |   |  __  | /  /__\  \  |    /   |      \           
                |  |  |   | |  | | |   __   |  |    \   |  |\   \          
                \     /   | |  | | |  |  |  |  | |\  \  |  | \   \       
                 \___/    |_|  |_| |__|  |__|  |_| \__\ |__|  \__/        
                                                                              
                      - O R C A' S   B I G   F R I E N D -                    
                                      &                                       
                       - I N T E G R A L  F E E D E R -                       
                                                                              
 v1 FN, 2020, v2 2021, v3 2022-2024                                           
------------------------------------------------------------------------------


----------------------
SHARK INTEGRAL PACKAGE
----------------------

Number of atoms                             ...     11
Number of basis functions                   ...    118
Number of shells                            ...     56
Maximum angular momentum                    ...      2
Integral batch strategy                     ... SHARK/LIBINT Hybrid
RI-J (if used) integral strategy            ... SPLIT-RIJ (Revised 2003 algorithm where possible)
Printlevel                                  ...      1
Contraction scheme used                     ... SEGMENTED contraction
Prescreening option                         ... SCHWARTZ
   Thresh                                   ... 2.500e-11
   Tcut                                     ... 2.500e-12
   Tpresel                                  ... 2.500e-12 
Coulomb Range Separation                    ... NOT USED
Exchange Range Separation                   ... NOT USED
Multipole approximations                    ... NOT USED
Finite Nucleus Model                        ... NOT USED
CABS basis                                  ... NOT available
Auxiliary Coulomb fitting basis             ... AVAILABLE
   # of basis functions in Aux-J            ...    387
   # of shells in Aux-J                     ...    125
   Maximum angular momentum in Aux-J        ...      4
Auxiliary J/K fitting basis                 ... NOT available
Auxiliary Correlation fitting basis         ... NOT available
Auxiliary 'external' fitting basis          ... NOT available

Checking pre-screening integrals            ... done (  0.0 sec) Dimension = 56
Check shell pair data                       ... done (  0.0 sec)
Shell pair information
Shell pair cut-off parameter TPreSel        ...   2.5e-12
Total number of shell pairs                 ...      1596
Shell pairs after pre-screening             ...      1479
Total number of primitive shell pairs       ...      5777
Primitive shell pairs kept                  ...      4089
          la=0 lb=0:    448 shell pairs
          la=1 lb=0:    548 shell pairs
          la=1 lb=1:    180 shell pairs
          la=2 lb=0:    172 shell pairs
          la=2 lb=1:    110 shell pairs
          la=2 lb=2:     21 shell pairs

Calculating one electron integrals          ... done (  0.0 sec)
Calculating RI/J V-Matrix + Cholesky decomp.... done (  0.0 sec)
Calculating Nuclear repulsion               ... done (  0.0 sec) ENN=    268.530670114746 Eh

Diagonalization of the overlap matrix:
Smallest eigenvalue                        ... 2.788e-03
Time for diagonalization                   ...    0.001 sec
Threshold for overlap eigenvalues          ... 1.000e-07
Number of eigenvalues below threshold      ... 0
Time for construction of square roots      ...    0.000 sec
Total time needed                          ...    0.001 sec

-------------------
DFT GRID GENERATION
-------------------

General Integration Accuracy     IntAcc      ... 4.388
Radial Grid Type                 RadialGrid  ... OptM3 with GC (2021)
Angular Grid (max. ang.)         AngularGrid ... 4 (Lebedev-302)
Angular grid pruning method      GridPruning ... 4 (adaptive)
Weight generation scheme         WeightScheme... mBecke (2022)
Basis function cutoff            BFCut       ... 1.0000e-11
Integration weight cutoff        WCut        ... 1.0000e-14
Partially contracted basis set               ... off
Rotationally invariant grid construction     ... off
Angular grids for H and He will be reduced by one unit

Total number of grid points                  ...    55181
Total number of batches                      ...      868
Average number of points per batch           ...       63
Average number of grid points per atom       ...     5016

--------------------
COSX GRID GENERATION
--------------------

GRIDX 1
-------
General Integration Accuracy     IntAcc      ... 3.816
Radial Grid Type                 RadialGrid  ... OptM3 with GC (2021)
Angular Grid (max. ang.)         AngularGrid ... 1 (Lebedev-50)
Angular grid pruning method      GridPruning ... 4 (adaptive)
Weight generation scheme         WeightScheme... mBecke (2022)
Basis function cutoff            BFCut       ... 1.0000e-11
Integration weight cutoff        WCut        ... 1.0000e-14
Partially contracted basis set               ... on
Rotationally invariant grid construction     ... off
Angular grids for H and He will be reduced by one unit

Total number of grid points                  ...     7028
Total number of batches                      ...       62
Average number of points per batch           ...      113
Average number of grid points per atom       ...      639
UseSFitting                                  ... on

GRIDX 2
-------
General Integration Accuracy     IntAcc      ... 4.020
Radial Grid Type                 RadialGrid  ... OptM3 with GC (2021)
Angular Grid (max. ang.)         AngularGrid ... 2 (Lebedev-110)
Angular grid pruning method      GridPruning ... 4 (adaptive)
Weight generation scheme         WeightScheme... mBecke (2022)
Basis function cutoff            BFCut       ... 1.0000e-11
Integration weight cutoff        WCut        ... 1.0000e-14
Partially contracted basis set               ... on
Rotationally invariant grid construction     ... off
Angular grids for H and He will be reduced by one unit

Total number of grid points                  ...    15820
Total number of batches                      ...      130
Average number of points per batch           ...      121
Average number of grid points per atom       ...     1438
UseSFitting                                  ... on

GRIDX 3
-------
General Integration Accuracy     IntAcc      ... 4.338
Radial Grid Type                 RadialGrid  ... OptM3 with GC (2021)
Angular Grid (max. ang.)         AngularGrid ... 3 (Lebedev-194)
Angular grid pruning method      GridPruning ... 4 (adaptive)
Weight generation scheme         WeightScheme... mBecke (2022)
Basis function cutoff            BFCut       ... 1.0000e-11
Integration weight cutoff        WCut        ... 1.0000e-14
Partially contracted basis set               ... on
Rotationally invariant grid construction     ... off
Angular grids for H and He will be reduced by one unit

Total number of grid points                  ...    34957
Total number of batches                      ...      278
Average number of points per batch           ...      125
Average number of grid points per atom       ...     3178
UseSFitting                                  ... on
Initializing property integral containers    ... done (  0.0 sec)

SHARK setup successfully completed in   0.5 seconds

Maximum memory used throughout the entire STARTUP-calculation: 22.7 MB
Occupation numbers will be reassigned to an Aufbau configuration
             **** ENERGY FILE WAS UPDATED (li_ec_gas.inp.en.tmp) ****
Finished Guess after   0.0 sec
Maximum memory used throughout the entire GUESS-calculation: 8.3 MB
----------------------------------------D-I-I-S--------------------------------------------
Iteration    Energy (Eh)           Delta-E    RMSDP     MaxDP     DIISErr   Damp  Time(sec)
-------------------------------------------------------------------------------------------
               ***  Starting incremental Fock matrix formation  ***
    1    -349.3366107394888900     0.00e+00  2.60e-04  3.61e-03  1.02e-02  0.700   1.1
    2    -349.3371814890286373    -5.71e-04  2.21e-04  2.70e-03  7.88e-03  0.700   0.5
                               ***Turning on AO-DIIS***
    3    -349.3375993212952721    -4.18e-04  1.69e-04  1.90e-03  5.92e-03  0.700   0.5
    4    -349.3378972634963588    -2.98e-04  4.27e-04  4.62e-03  4.31e-03  0.000   0.5
                              *** Initializing SOSCF ***
---------------------------------------S-O-S-C-F--------------------------------------
Iteration    Energy (Eh)           Delta-E    RMSDP     MaxDP     MaxGrad    Time(sec)
--------------------------------------------------------------------------------------
    5    -349.3386359310497369    -7.39e-04  3.94e-05  1.01e-03  7.01e-04     0.5
               *** Restarting incremental Fock matrix formation ***
    6    -349.3386381213610434    -2.19e-06  2.14e-05  5.34e-04  7.62e-05     1.1
    7    -349.3386382119164750    -9.06e-08  9.75e-06  1.98e-04  8.26e-05     0.8
    8    -349.3386385017003590    -2.90e-07  3.40e-06  8.16e-05  2.07e-05     0.8
    9    -349.3386384899836798     1.17e-08  2.03e-06  5.23e-05  3.19e-05     0.7
   10    -349.3386385090180397    -1.90e-08  2.47e-07  4.60e-06  1.97e-06     0.7
                  *** Gradient check signals convergence ***

               *****************************************************
               *                     SUCCESS                       *
               *           SCF CONVERGED AFTER  10 CYCLES          *
               *****************************************************

Recomputing exchange energy using gridx3       ... done (    1.707 sec)
Old exchange energy                            :     -8.655775681 Eh
New exchange energy                            :     -8.655816620 Eh
Exchange energy change after final integration :     -0.000040939 Eh
Total energy after final integration           :   -349.338679448 Eh
             **** ENERGY FILE WAS UPDATED (li_ec_gas.inp.en.tmp) ****

----------------
TOTAL SCF ENERGY
----------------

Total Energy       :       -349.33867944829638 Eh           -9505.98874 eV

Components:
Nuclear Repulsion  :        268.53067011474576 Eh            7307.09102 eV
Electronic Energy  :       -617.86930862376380 Eh          -16813.07865 eV
[...]
  26   0.0000      -0.112419        -3.0591 
  27   0.0000      -0.109722        -2.9857 
  28   0.0000      -0.101548        -2.7633 
  29   0.0000      -0.067626        -1.8402 
  30   0.0000      -0.057052        -1.5525 
  31   0.0000      -0.047676        -1.2973 
  32   0.0000      -0.021869        -0.5951 
  33   0.0000      -0.008299        -0.2258 
  34   0.0000       0.002626         0.0715 
*Only the first 10 virtual orbitals were printed.

                    ********************************
                    * MULLIKEN POPULATION ANALYSIS *
                    ********************************

-----------------------
MULLIKEN ATOMIC CHARGES
-----------------------
   0 C :    0.162697
   1 C :    0.162419
   2 O :   -0.258004
   3 H :    0.084078
   4 H :    0.087174
   5 O :   -0.259225
   6 H :    0.084026
   7 H :    0.087098
   8 C :    0.414204
   9 O :   -0.392595
  10 Li:    0.828127
Sum of atomic charges:    1.0000000

--------------------------------
MULLIKEN REDUCED ORBITAL CHARGES
--------------------------------
  0 C s       :     3.037351  s :     3.037351
      pz      :     1.085125  p :     2.745760
      px      :     0.953893
      py      :     0.706742
      dz2     :     0.009498  d :     0.054191
      dxz     :     0.006435
      dyz     :     0.011437
      dx2y2   :     0.016964
      dxy     :     0.009857

  1 C s       :     3.037451  s :     3.037451
      pz      :     1.087739  p :     2.745929
      px      :     0.985550
      py      :     0.672640
      dz2     :     0.009459  d :     0.054200
      dxz     :     0.007035
      dyz     :     0.010775
      dx2y2   :     0.018423
      dxy     :     0.008508

  2 O s       :     3.755571  s :     3.755571
      pz      :     1.721396  p :     4.483860
      px      :     1.520013
      py      :     1.242451
      dz2     :     0.002425  d :     0.018573
      dxz     :     0.003302
      dyz     :     0.002134
      dx2y2   :     0.003999
      dxy     :     0.006713

  3 H s       :     0.894226  s :     0.894226
      pz      :     0.012991  p :     0.021696
      px      :     0.005089
      py      :     0.003616

  4 H s       :     0.890904  s :     0.890904
      pz      :     0.010684  p :     0.021922
      px      :     0.005467
      py      :     0.005771

  5 O s       :     3.755754  s :     3.755754
      pz      :     1.722540  p :     4.484916
      px      :     1.477404
      py      :     1.284973
      dz2     :     0.002426  d :     0.018555
      dxz     :     0.003461
      dyz     :     0.001953
      dx2y2   :     0.005447
      dxy     :     0.005266

  6 H s       :     0.894279  s :     0.894279
      pz      :     0.012815  p :     0.021694
      px      :     0.005634
      py      :     0.003245

  7 H s       :     0.890981  s :     0.890981
      pz      :     0.010951  p :     0.021921
      px      :     0.006300
      py      :     0.004670

  8 C s       :     2.966483  s :     2.966483
      pz      :     0.795961  p :     2.440230
      px      :     0.815842
      py      :     0.828427
      dz2     :     0.010176  d :     0.179083
      dxz     :     0.022757
      dyz     :     0.033583
      dx2y2   :     0.045432
      dxy     :     0.067134

  9 O s       :     3.729351  s :     3.729351
      pz      :     1.594669  p :     4.651119
      px      :     1.789451
      py      :     1.266999
      dz2     :     0.001384  d :     0.012125
      dxz     :     0.000053
      dyz     :     0.003759
      dx2y2   :     0.004418
      dxy     :     0.002510

 10 Lis       :     2.039432  s :     2.039432
      pz      :     0.028675  p :     0.132441
      px      :     0.039064
      py      :     0.064702



                     *******************************
                     * LOEWDIN POPULATION ANALYSIS *
                     *******************************

----------------------
LOEWDIN ATOMIC CHARGES
----------------------
   0 C :    0.112672
   1 C :    0.112538
   2 O :   -0.040917
   3 H :    0.046456
   4 H :    0.051192
   5 O :   -0.041680
   6 H :    0.046402
   7 H :    0.051144
   8 C :    0.161692
   9 O :   -0.186426
  10 Li:    0.686927

-------------------------------
LOEWDIN REDUCED ORBITAL CHARGES
-------------------------------
  0 C s       :     2.865484  s :     2.865484
      pz      :     1.106312  p :     2.900170
      px      :     1.007898
      py      :     0.785960
      dz2     :     0.021158  d :     0.121675
      dxz     :     0.013630
      dyz     :     0.027346
      dx2y2   :     0.039116
      dxy     :     0.020424

  1 C s       :     2.865461  s :     2.865461
      pz      :     1.108330  p :     2.900289
      px      :     1.030524
      py      :     0.761435
      dz2     :     0.020993  d :     0.121712
      dxz     :     0.015819
      dyz     :     0.025145
      dx2y2   :     0.042591
      dxy     :     0.017164

  2 O s       :     3.454980  s :     3.454980
      pz      :     1.695936  p :     4.552119
      px      :     1.569402
      py      :     1.286781
      dz2     :     0.004284  d :     0.033818
      dxz     :     0.003606
      dyz     :     0.003779
      dx2y2   :     0.007881
      dxy     :     0.014267

  3 H s       :     0.887027  s :     0.887027
      pz      :     0.038759  p :     0.066516
      px      :     0.015737
      py      :     0.012020

  4 H s       :     0.882204  s :     0.882204
      pz      :     0.031508  p :     0.066604
      px      :     0.016842
      py      :     0.018255

  5 O s       :     3.455031  s :     3.455031
      pz      :     1.696891  p :     4.552851
      px      :     1.535265
      py      :     1.320695
      dz2     :     0.004268  d :     0.033798
      dxz     :     0.003958
      dyz     :     0.003429
      dx2y2   :     0.011014
      dxy     :     0.011129

  6 H s       :     0.887085  s :     0.887085
      pz      :     0.038204  p :     0.066513
      px      :     0.017308
      py      :     0.011001

  7 H s       :     0.882255  s :     0.882255
      pz      :     0.032296  p :     0.066601
      px      :     0.019236
      py      :     0.015069

  8 C s       :     2.779613  s :     2.779613
      pz      :     0.804614  p :     2.680974
      px      :     0.914935
      py      :     0.961426
      dz2     :     0.022023  d :     0.377721
      dxz     :     0.043379
      dyz     :     0.064189
      dx2y2   :     0.097940
      dxy     :     0.150190

  9 O s       :     3.457413  s :     3.457413
      pz      :     1.562889  p :     4.705178
      px      :     1.751734
      py      :     1.390555
      dz2     :     0.003540  d :     0.023836
      dxz     :     0.000056
      dyz     :     0.005117
      dx2y2   :     0.010849
      dxy     :     0.004274

 10 Lis       :     2.078371  s :     2.078371
      pz      :     0.038762  p :     0.234702
      px      :     0.050756
      py      :     0.145185



                      *****************************
                      * MAYER POPULATION ANALYSIS *
                      *****************************

  NA   - Mulliken gross atomic population
  ZA   - Total nuclear charge
  QA   - Mulliken gross atomic charge
  VA   - Mayer's total valence
  BVA  - Mayer's bonded valence
  FA   - Mayer's free valence

  ATOM       NA         ZA         QA         VA         BVA        FA
  0 C      5.8373     6.0000     0.1627     3.9335     3.9335    -0.0000
  1 C      5.8376     6.0000     0.1624     3.9333     3.9333    -0.0000
  2 O      8.2580     8.0000    -0.2580     2.2679     2.2679    -0.0000
  3 H      0.9159     1.0000     0.0841     0.9777     0.9777    -0.0000
  4 H      0.9128     1.0000     0.0872     0.9810     0.9810    -0.0000
  5 O      8.2592     8.0000    -0.2592     2.2665     2.2665     0.0000
  6 H      0.9160     1.0000     0.0840     0.9777     0.9777    -0.0000
  7 H      0.9129     1.0000     0.0871     0.9810     0.9810    -0.0000
  8 C      5.5858     6.0000     0.4142     4.2526     4.2526    -0.0000
  9 O      8.3926     8.0000    -0.3926     2.0984     2.0984    -0.0000
 10 Li     2.1719     3.0000     0.8281     0.3352     0.3352    -0.0000

  Mayer bond orders larger than 0.100000
B(  0-C ,  1-C ) :   1.0850 B(  0-C ,  2-O ) :   0.8892 B(  0-C ,  3-H ) :   0.9517 
B(  0-C ,  4-H ) :   0.9545 B(  1-C ,  5-O ) :   0.8890 B(  1-C ,  6-H ) :   0.9517 
B(  1-C ,  7-H ) :   0.9545 B(  2-O ,  8-C ) :   1.2581 B(  5-O ,  8-C ) :   1.2570 
B(  8-C ,  9-O ) :   1.6698 B(  9-O , 10-Li) :   0.2959 

-------
TIMINGS
-------

Total SCF time: 0 days 0 hours 0 min 5 sec 

Total time                  ....       5.422 sec
Sum of individual times     ....       5.403 sec  ( 99.7%)

SCF preparation             ....       0.032 sec  (  0.6%)
Fock matrix formation       ....       5.335 sec  ( 98.4%)
  Startup                   ....       0.001 sec  (  0.0% of F)
  Split-RI-J                ....       0.195 sec  (  3.7% of F)
  Chain of spheres X        ....       4.483 sec  ( 84.0% of F)
  XC integration            ....       0.651 sec  ( 12.2% of F)
    XC Preparation          ....       0.000 sec  (  0.0% of XC)
    Basis function eval.    ....       0.278 sec  ( 42.7% of XC)
    Density eval.           ....       0.120 sec  ( 18.5% of XC)
    XC-Functional eval.     ....       0.038 sec  (  5.8% of XC)
    XC-Potential eval.      ....       0.186 sec  ( 28.6% of XC)
Diagonalization             ....       0.000 sec  (  0.0%)
Density matrix formation    ....       0.001 sec  (  0.0%)
Total Energy calculation    ....       0.002 sec  (  0.0%)
Population analysis         ....       0.021 sec  (  0.4%)
Orbital Transformation      ....       0.001 sec  (  0.0%)
Orbital Orthonormalization  ....       0.000 sec  (  0.0%)
DIIS solution               ....       0.002 sec  (  0.0%)
SOSCF solution              ....       0.009 sec  (  0.2%)
Finished LeanSCF after   5.4 sec

Maximum memory used throughout the entire LEANSCF-calculation: 14.0 MB


-------------------------------------------------------------------------------
                          DFT DISPERSION CORRECTION                            
                                                                               
                              DFTD3 V3.1  Rev 1                                
                          USING Becke-Johnson damping                          
-------------------------------------------------------------------------------
The B3LYP functional is recognized
Active option DFTDOPT                   ...         4   

molecular C6(AA) [au] = 1448.615440 


            DFT-D V3
 parameters
 s6 scaling factor         :     1.0000 
 a1 scaling factor         :     0.3981 
 s8 scaling factor         :     1.9889 
 a2 scaling factor         :     4.4211 
 ad hoc parameters k1-k3   :    16.0000     1.3333    -4.0000 

 Edisp/kcal,au: -8.302083249107  -0.013230210390 
 E6   /kcal   :  -3.864637703 
 E8   /kcal   :  -4.437445546 
 % E8         :  53.449783779 

-------------------------   ----------------
Dispersion correction           -0.013230210
-------------------------   ----------------


-------------------------   --------------------
FINAL SINGLE POINT ENERGY      -349.354884632141
-------------------------   --------------------

                                *** OPTIMIZATION RUN DONE ***


------------------------------------------------------------------------------
                              ORCA PROPERTY CALCULATIONS
------------------------------------------------------------------------------

GBWName                                 ... li_ec_gas.inp.gbw
Number of atoms                         ...     11
Number of basis functions               ...    118
Max core memory                         ...   1024 MB

Electric properties:
Dipole moment                           ... YES
Quadrupole moment                       ...  NO
Static polarizability (Dipole/Dipole)   ...  NO
Static polarizability (Dipole/Quad.)    ...  NO
Static polarizability (Quad./Quad.)     ...  NO
Static polarizability (Velocity)        ...  NO

Atomic electric properties:
Dipole moment                           ...  NO
Quadrupole moment                       ...  NO
Static polarizability                   ...  NO

Choice of electric origin               ... Center of mass
Position of electric origin             ...   -13.560670     1.573315     0.102655

General magnetic properties:
Magnetizability                         ...  NO

EPR properties:
g-Tensor (aka g-matrix)                 ...  NO
Zero-Field splitting spin-orbit         ...  NO
Zero-field splitting spin-spin          ...  NO
Hyperfine couplings                     ...  NO (   0 nuclei)
Quadrupole couplings                    ...  NO (   0 nuclei)
Contact density                         ...  NO (   0 nuclei)

NMR properties:
Chemical shifts                         ...  NO (   0 nuclei)
Spin-rotation constants                 ...  NO (   0 nuclei)
Spin-spin couplings                     ...  NO (   0 nuclei,    0 pairs)

Choice of magnetic origin               ... GIAO
Position of magnetic origin             ...     0.000000     0.000000     0.000000

Properties with geometric perturbations:
SCF Hessian                             ...  NO
IR spectrum                             ...  NO
VCD spectrum                            ...  NO
X-ray spectroscopy properties:
SCF XES/XAS/RIXS spectra                ...  NO


-------------
DIPOLE MOMENT
-------------

Method             : SCF
Type of density    : Electron Density
Multiplicity       :   1
Irrep              :   0
Energy             :  -349.3416544217507180 Eh
Relativity type    : 
Basis              : AO
                                X                 Y                 Z
Electronic contribution:     -0.778973535     -13.344084158       0.176304208
Nuclear contribution   :      0.669917200      10.870641991      -0.146966294
                        -----------------------------------------
Total Dipole Moment    :     -0.109056336      -2.473442168       0.029337914
                        -----------------------------------------
Magnitude (a.u.)       :      2.476019013
Magnitude (Debye)      :      6.293540176



--------------------
Rotational spectrum 
--------------------
 
Rotational constants in cm-1:             0.271535             0.077035             0.061542 
Rotational constants in MHz :          8140.402399          2309.448917          1844.988022 

Dipole components along the rotational axes: 
x,y,z [a.u.] :     2.475715     0.038770    -0.001142 
x,y,z [Debye]:     6.292768     0.098545    -0.002902 

 

Dipole moment calculation done in   0.0 sec 

Maximum memory used throughout the entire PROP-calculation: 7.9 MB

--------------------------------
SUGGESTED CITATIONS FOR THIS RUN
--------------------------------

Below you find a list of papers that are relevant to this ORCA run
We neither can nor want to force you to cite these papers, but we appreciate if you do
You receive ORCA, which is the product of decades of hard work by many enthusiastic individuals, for free
The only thing we kindly ask in return is that you cite our papers,
We deeply appreciate it, if you show your appreciation for ORCA by not just citing the generic ORCA reference.

Please note that relegating all ORCA citations to the supporting information does *not* help us.
SI sections are not indexed - citations you put there will not count into any citation statistics
But we need these citations in order to attract the funding resources that allow us to do what we are doing

Therefore, if you are a happy ORCA user, please consider citing a few of the papers listed below in the main body of your paper

In addition to the list printed below, the program has created the file li_ec_gas.inp.bibtex that contains the list in bibtex format
You can import this file easily into all common literature databanks and citation aid programs


List of essential papers. We consider these as the minimum necessary citations

  1. Neese,F.
     Software update: the ORCA program system, version 5.0
     WIRES Comput. Molec. Sci., 2022 12(1)e1606
     doi.org/10.1002/wcms.1606

List of papers to cite with high priority. The work reported in these papers was absolutely
necessary for this run to complete.
Our perspective: the developers of density functionals and basis sets usually get cited in chemistry papers
Good! But without the algorithms to do something with them, the functionals or basis sets would not do anything.
Hence, in our opinion, the algorithm design and method developments papers are equally worthy of getting cited

  1. Neese,F.
     An improvement of the resolution of the identity approximation for the formation of the Coulomb matrix
     J. Comp. Chem., 2003 24(14)1740-1747
     doi.org/10.1002/jcc.10318
  2. Neese,F.; Wennmohs,F.; Hansen,A.; Becker,U.
     Efficient, approximate and parallel Hartree-Fock and hybrid DFT calculations. A 'chain-of-spheres' algorithm for the Hartree-Fock exchange
     Chem. Phys., 2009 356(1-3)98-109
     doi.org/10.1016/j.chemphys.2008.10.036
  3. Helmich-Paris,B.; de Souza,B.; Neese,F.; Izsák,R.
     An improved chain of spheres for exchange algorithm
     J. Chem. Phys., 2021 155 104109
     doi.org/doi: 10.1063/5.0058766.
  4. Neese,F.
     The SHARK Integral Generation and Digestion System
     J. Comp. Chem., 2022  1-16
     doi.org/10.1002/jcc.26942
  5. Grimme,S.; Antony,J.; Ehrlich,S.; Krieg,H.
     A consistent and accurate ab initio parametrization of density functional dispersion correction (DFT-D) for the 94 elements H-Pu
     J. Chem. Phys., 2010 132 154104
     doi.org/10.1063/1.3382344
  6. Grimme,S.; Ehrlich,S.; Goerigk,L.
     Effect of the damping function in dispersion corrected density functional theory
     J. Comput. Chem., 2011 32(7)1456-1465
     doi.org/10.1002/jcc.21759

List of suggested additional citations. These are papers that are important in the 'surrounding' of 
of this run, or papers that preceded the highly important papers. If you like your results we are grateful for a citation.

  1. Izsak,R.; Neese,F.
     An overlap fitted chain of spheres exchange method
     J. Chem. Phys., 2011 135 144105
     doi.org/10.1063/1.3646921
  2. Izsak,R.; Hansen,A.; Neese,F.
     The resolution of identity and chain of spheres approximations for the LPNO-CCSD singles Fock term
     Molec. Phys., 2012 110 2413-2417
     doi.org/10.1080/00268976.2012.687466
  3. Neese,F.
     The ORCA program system
     WIRES Comput. Molec. Sci., 2012 2(1)73-78
     doi.org/10.1002/wcms.81
  4. Izsak,R.; Neese,F.; Klopper,W.
     Robust fitting techniques in the chain of spheres approximation to the Fock exchange: The role of the complementary space
     J. Chem. Phys., 2013 139 
     doi.org/10.1063/1.4819264
  5. Neese,F.
     Software update: the ORCA program system, version 4.0
     WIRES Comput. Molec. Sci., 2018 8(1)1-6
     doi.org/10.1002/wcms.1327
  6. Neese,F.; Wennmohs,F.; Becker,U.; Riplinger,C.
     The ORCA quantum chemistry program package
     J. Chem. Phys., 2020 152 Art. No. L224108
     doi.org/10.1063/5.0004608

List of optional additional citations

  1. Neese,F.
     Approximate second-order SCF convergence for spin unrestricted wavefunctions
     Chem. Phys. Lett., 2000 325(1-3)93-98
     doi.org/10.1016/s0009-2614(00)00662-x

Timings for individual modules:

Sum of individual times          ...      248.176 sec (=   4.136 min)
Startup calculation              ...        8.549 sec (=   0.142 min)   3.4 %
SCF iterations                   ...      124.725 sec (=   2.079 min)  50.3 %
Property calculations            ...        0.065 sec (=   0.001 min)   0.0 %
SCF Gradient evaluation          ...      114.767 sec (=   1.913 min)  46.2 %
Geometry relaxation              ...        0.070 sec (=   0.001 min)   0.0 %
                             ****ORCA TERMINATED NORMALLY****
TOTAL RUN TIME: 0 days 0 hours 4 minutes 9 seconds 401 msec
