
                                 *****************
                                 * O   R   C   A *
                                 *****************

                                            #,                                       
                                            ###                                      
                                            ####                                     
                                            #####                                    
                                            ######                                   
                                           ########,                                 
                                     ,,################,,,,,                         
                               ,,#################################,,                 
                          ,,##########################################,,             
                       ,#########################################, ''#####,          
                    ,#############################################,,   '####,        
                  ,##################################################,,,,####,       
                ,###########''''           ''''###############################       
              ,#####''   ,,,,##########,,,,          '''####'''          '####       
            ,##' ,,,,###########################,,,                        '##       
           ' ,,###''''                  '''############,,,                           
         ,,##''                                '''############,,,,        ,,,,,,###''
      ,#''                                            '''#######################'''  
     '                                                          ''''####''''         
             ,#######,   #######,   ,#######,      ##                                
            ,#'     '#,  ##    ##  ,#'     '#,    #''#        ,####,   ,####,        
            ##       ##  ##   ,#'  ##            #'  '#       #'       #'  '#        
            ##       ##  #######   ##           ,######,      #####,   #    #        
            '#,     ,#'  ##    ##  '#,     ,#' ,#      #,     #,   #   #,  ,#        
             '#######'   ##     ##  '#######'  #'      '#     '####' # '####'        



                #########################################################
                #                        -***-                          #
                #          Department of theory and spectroscopy        #
                #                                                       #
                #                      Frank Neese                      #
                #                                                       #
                #     Directorship, Architecture, Infrastructure        #
                #                    SHARK, DRIVERS                     #
                #        Core code/Algorithms in most modules           #
                #                                                       #
                #        Max Planck Institute fuer Kohlenforschung      #
                #                Kaiser Wilhelm Platz 1                 #
                #                 D-45470 Muelheim/Ruhr                 #
                #                      Germany                          #
                #                                                       #
                #                  All rights reserved                  #
                #                        -***-                          #
                #########################################################


                         Program Version 6.0.1  -  RELEASE   -


 With contributions from (in alphabetic order):
[Max-Planck-Institut fuer Kohlenforschung]                               
  Daniel Aravena         : Magnetic Suceptibility                        
  Michael Atanasov       : Ab Initio Ligand Field Theory (pilot matlab implementation)
  Alexander A. Auer      : GIAO ZORA, VPT2 properties, NMR spectrum      
  Ute Becker             : All parallelization in ORCA, NUMFREQ, NUMCALC 
  Giovanni Bistoni       : ED, misc. LED, open-shell LED, HFLD           
  Martin Brehm           : Molecular dynamics                            
  Dmytro Bykov           : pre 5.0 version of the SCF Hessian            
  Marcos Casanova-Páez   : Triplet and SCS-CIS(D). UHF-(DLPNO)-IP/EA/STEOM-CCSD. UHF-CVS-IP/STEOM-CCSD   
  Vijay G. Chilkuri      : MRCI spin determinant printing, contributions to CSF-ICE 
  Pauline Colinet        : FMM embedding                                 
  Dipayan Datta          : RHF DLPNO-CCSD density                        
  Achintya Kumar Dutta   : EOM-CC, STEOM-CC                              
  Nicolas Foglia         : Exact transition moments, OPA infrastructure, MCD improvements    
  Dmitry Ganyushin       : Spin-Orbit,Spin-Spin,Magnetic field MRCI      
  Miquel Garcia-Rates    : C-PCM and meta-GGA Hessian, CCSD/C-PCM, Gaussian charge scheme 
  Tiago L. C. Gouveia    : GS-ROHF, GS-ROCIS                             
  Yang Guo               : DLPNO-NEVPT2, F12-NEVPT2, CIM, IAO-localization        
  Andreas Hansen         : Spin unrestricted coupled pair/coupled cluster methods 
  Ingolf Harden          : AUTO-CI MPn and infrastructure                
  Benjamin Helmich-Paris : MC-RPA, TRAH-(SCF,CASSCF), AVAS, COSX integrals, SCF dyn. polar. 
  Lee Huntington         : MR-EOM, pCC                                   
  Robert Izsak           : Overlap fitted RIJCOSX, COSX-SCS-MP3, EOM     
  Riya Kayal             : Wick's Theorem for AUTO-CI, AUTO-CI UHF-CCSDT 
  Emily Kempfer          : AUTO-CI, RHF CISDT and CCSDT                  
  Christian Kollmar      : KDIIS, OOCD, Brueckner-CCSD(T), CCSD density, CASPT2, CASPT2-K, improved NEVPT2 
  Axel Koslowski         : Symmetry handling                             
  Simone Kossmann        : meta-GGA functionals, TD-DFT gradient, OOMP2, (MP2 Hessian; deprecated post 5.0) 
  Lucas Lang             : DCDCAS                                        
  Marvin Lechner         : AUTO-CI (C++ implementation), FIC-MRCC        
  Spencer Leger          : CASSCF response                               
  Dagmar Lenk            : GEPOL surface, SMD, ORCA-2-JSON               
  Dimitrios Liakos       : Extrapolation schemes; Compound Job, initial MDCI parallelization 
  Dimitrios Manganas     : Further ROCIS development; embedding schemes. LFT, Crystal Embedding 
  Dimitrios Pantazis     : SARC Basis sets                               
  Anastasios Papadopoulos: AUTO-CI, single reference methods and gradients 
  Taras Petrenko         : pre 6.0 DFT Hessian and TD-DFT gradient, (ASA, deprecated), ECA, 1-Electron XAS/XES, NRVS 
  Peter Pinski           : DLPNO-MP2, DLPNO-MP2 Gradient                 
  Christoph Reimann      : Effective Core Potentials                     
  Marius Retegan         : Local ZFS, SOC                                
  Christoph Riplinger    : Optimizer, TS searches, QM/MM, DLPNO-CCSD(T), (RO)-DLPNO pert. Triples 
  Michael Roemelt        : Original ROCIS implementation                 
  Masaaki Saitow         : Open-shell DLPNO-CCSD energy and density      
  Barbara Sandhoefer     : DKH picture change effects                    
  Kantharuban Sivalingam : CASSCF convergence/infrastructure, NEVPT2 and variants, FIC-MRCI 
  Bernardo de Souza      : ESD, SOC TD-DFT                               
  Georgi L. Stoychev     : AutoAux, RI-MP2 NMR, DLPNO-MP2 response, X2C  
  Van Anh Tran           : RI-MP2 g-tensors                              
  Willem Van den Heuvel  : Paramagnetic NMR                              
  Zikuan Wang            : NOTCH, Electric field optimization            
  Frank Wennmohs         : Technical directorship and infrastructure     
  Hang Xu                : AUTO-CI-Response properties                   
                                                                         
[FACCTs GmbH]                                                            
  Markus Bursch, Miquel Garcia-Rates, Christoph Riplinger, Bernardo de Souza, Georgi L. Stoychev 
                                                                 
  APM, Basis sets (HGBS, AHGBS, def-TZVP (Ac-Lr), def2-XVPD (La-Lu)), CI-OPT, improved COSX, DLPNO-Multilevel,           
  DOCKER, DRACO, updates on ESD, GOAT, IRC, LR-CPCM, MBIS, meta-GGA TD-DFT gradient, ML-optimized integration grids, 
  MM, NACMEs, nearIR, NEB, NEB-TS, NL-DFT gradient (VV10), 2- and 3-layer-ONIOM, interface openCOSMO-RS, QMMM,   
  Crystal-QMMM, SF, symmetry and pop. for TD-DFT, r2SCAN hybrids, SOLVATOR                                   
                                                                         
[Other institutions]                                                     
  V. Asgeirsson          : NEB                                           
  Christoph Bannwarth    : sTDA-DFT, sTD-DFT, PBEh-3c, B97-3c, D3        
  Sebastian Ehlert       : rSCAN, r2SCAN, r2SCAN-3c, D4, dhf basis sets  
  Marvin Friede          : D4 for Fr, Ra, Ac-Lr                          
  Lars Goerigk           : TD-DFT with DH, B97 family of functionals     
  Stefan Grimme          : VdW corrections, initial TS optimization, DFT functionals, gCP, sTDA/sTD-DF 
  Waldemar Hujo          : DFT-NL                                        
  H. Jonsson             : NEB                                           
  Holger Kruse           : gCP                                           
  Marcel Mueller         : wB97X-3c, vDZP basis set                      
  Hagen Neugebauer       : wr2SCAN                                       
  Tobias Risthaus        : range-separated hybrid DFT                    
  Lukas Wittmann         : regularized MP2, r2SCAN double-hybrids, wr2SCAN        
                                                                         
We gratefully acknowledge several colleagues who have allowed us to      
interface, adapt or use parts of their codes:                            
  Ed Valeev, F. Pavosevic, A. Kumar             : LibInt (2-el integral package), F12 methods 
  Garnet Chan, S. Sharma, J. Yang, R. Olivares  : DMRG                   
  Ulf Ekstrom                                   : XCFun DFT Library      
  Mihaly Kallay                                 : mrcc  (arbitrary order and MRCC methods)
  Frank Weinhold                                : gennbo (NPA and NBO analysis)           
  Simon Mueller                                 : openCOSMO-RS                            
  Christopher J. Cramer and Donald G. Truhlar   : smd solvation model                     
  S Lehtola, MJT Oliveira, MAL Marques          : LibXC Library                           
  Liviu Ungur et al                             : ANISO software                          


 Your calculation uses the libint2 library for the computation of 2-el integrals
 For citations please refer to: http://libint.valeyev.net

 Your ORCA version has been built with support for libXC version: 6.2.2
 For citations please refer to: https://libxc.gitlab.io

 This ORCA versions uses:
   CBLAS   interface :  Fast vector & matrix operations
   LAPACKE interface :  Fast linear algebra routines
   SCALAPACK package :  Parallel linear algebra routines
   Shared memory     :  Shared parallel matrices


Your calculation utilizes the atom-pairwise dispersion correction
with the Becke-Johnson damping scheme (D3BJ)


Warning: RI is on but no J-basis has been assigned. Assigning Def2/J (nothing to worry about!)
================================================================================

----- Orbital basis set information -----
Your calculation utilizes the basis: def2-SVP
   F. Weigend and R. Ahlrichs, Phys. Chem. Chem. Phys. 7, 3297 (2005).

The basis set includes element-specific modifications.

Your calculation utilizes the basis: def2-TZVP
   F. Weigend and R. Ahlrichs, Phys. Chem. Chem. Phys. 7, 3297 (2005).

----- AuxJ basis set information -----
Your calculation utilizes the auxiliary basis: def2/J
   F. Weigend, Phys. Chem. Chem. Phys. 8, 1057 (2006).

================================================================================
                                        WARNINGS
                       Please study these warnings very carefully!
================================================================================


================================================================================
                                       INPUT FILE
================================================================================
NAME = li_ec_1_freq.inp.txt
|  1> # avogadro generated ORCA input file 
|  2> # Basic Mode
|  3> # 
|  4> ! B3LYP D3BJ def2-SVP TightSCF Freq
|  5> 
|  6> %basis
|  7>   NewGTO Li "def2-TZVP" end
|  8> end
|  9> 
| 10> * xyz 1 1
| 11>    C     -7.838869    2.537876    0.009965
| 12>    C     -6.302178    2.438158    0.053331
| 13>    O     -8.252298    1.157218    0.172246
| 14>    H     -8.231086    2.895767   -0.952450
| 15>    H     -8.272134    3.125146    0.829102
| 16>    O     -6.072348    1.011596   -0.069864
| 17>    H     -5.864861    2.768548    1.006101
| 18>    H     -5.797763    2.941124   -0.781049
| 19>    C     -7.209465    0.364552    0.061126
| 20>    O     -7.288795   -0.857322    0.077756
| 21>    Li    -7.364314   -2.572663    0.098235
| 22> *
| 23> 
| 24> 
| 25>                          ****END OF INPUT****
================================================================================

                       ****************************
                       * Single Point Calculation *
                       ****************************

---------------------------------
CARTESIAN COORDINATES (ANGSTROEM)
---------------------------------
  C     -7.838869    2.537876    0.009965
  C     -6.302178    2.438158    0.053331
  O     -8.252298    1.157218    0.172246
  H     -8.231086    2.895767   -0.952450
  H     -8.272134    3.125146    0.829102
  O     -6.072348    1.011596   -0.069864
  H     -5.864861    2.768548    1.006101
  H     -5.797763    2.941124   -0.781049
  C     -7.209465    0.364552    0.061126
  O     -7.288795   -0.857322    0.077756
  Li    -7.364314   -2.572663    0.098235

----------------------------
CARTESIAN COORDINATES (A.U.)
----------------------------
  NO LB      ZA    FRAG     MASS         X           Y           Z
   0 C     6.0000    0    12.011  -14.813316    4.795891    0.018831
   1 C     6.0000    0    12.011  -11.909390    4.607451    0.100781
   2 O     8.0000    0    15.999  -15.594583    2.186825    0.325498
   3 H     1.0000    0     1.008  -15.554498    5.472207   -1.799870
   4 H     1.0000    0     1.008  -15.632068    5.905670    1.566776
   5 O     8.0000    0    15.999  -11.475075    1.911639   -0.132024
   6 H     1.0000    0     1.008  -11.082981    5.231798    1.901255
   7 H     1.0000    0     1.008  -10.956184    5.557919   -1.475969
   8 C     6.0000    0    12.011  -13.623914    0.688903    0.115511
   9 O     8.0000    0    15.999  -13.773826   -1.620104    0.146938
  10 Li    3.0000    0     6.941  -13.916537   -4.861629    0.185637

--------------------------------
INTERNAL COORDINATES (ANGSTROEM)
--------------------------------
 C      0   0   0     0.000000000000     0.00000000     0.00000000
 C      1   0   0     1.540533517636     0.00000000     0.00000000
 O      1   2   0     1.450336227902   102.68418022     0.00000000
 H      1   2   3     1.099164580577   113.68235512   243.80339477
 H      1   2   3     1.097082511890   114.05235766   116.89196341
 O      2   1   3     1.450199288639   102.67200291    12.31553848
 H      2   1   3     1.099169861072   113.69156391   256.11832266
 H      2   1   3     1.097086721176   114.05071457   129.20249066
 C      3   1   2     1.314597926305   109.78051238   349.36171270
 O      9   3   1     1.224559462695   123.30610450   184.48644678
 Li    10   9   3     1.717124705746   178.80248973   181.78780656

---------------------------
INTERNAL COORDINATES (A.U.)
---------------------------
 C      0   0   0     0.000000000000     0.00000000     0.00000000
 C      1   0   0     2.911186448459     0.00000000     0.00000000
 O      1   2   0     2.740738272840   102.68418022     0.00000000
 H      1   2   3     2.077120033397   113.68235512   243.80339477
 H      1   2   3     2.073185493786   114.05235766   116.89196341
 O      2   1   3     2.740479495135   102.67200291    12.31553848
 H      2   1   3     2.077130012086   113.69156391   256.11832266
 H      2   1   3     2.073193448185   114.05071457   129.20249066
 C      3   1   2     2.484230056937   109.78051238   349.36171270
 O      9   3   1     2.314082019195   123.30610450   184.48644678
 Li    10   9   3     3.244895431650   178.80248973   181.78780656

---------------------
BASIS SET INFORMATION
---------------------
There are 4 groups of distinct atoms

 Group   1 Type C   : 7s4p1d contracted to 3s2p1d pattern {511/31/1}
 Group   2 Type O   : 7s4p1d contracted to 3s2p1d pattern {511/31/1}
 Group   3 Type H   : 4s1p contracted to 2s1p pattern {31/1}
 Group   4 Type Li  : 11s3p contracted to 5s3p pattern {62111/111}

Atom   0C    basis set group =>   1
Atom   1C    basis set group =>   1
Atom   2O    basis set group =>   2
Atom   3H    basis set group =>   3
Atom   4H    basis set group =>   3
Atom   5O    basis set group =>   2
Atom   6H    basis set group =>   3
Atom   7H    basis set group =>   3
Atom   8C    basis set group =>   1
Atom   9O    basis set group =>   2
Atom  10Li   basis set group =>   4
---------------------------------
AUXILIARY/J BASIS SET INFORMATION
---------------------------------
There are 4 groups of distinct atoms

 Group   1 Type C   : 12s5p4d2f1g contracted to 6s4p3d1f1g pattern {711111/2111/211/2/1}
 Group   2 Type O   : 12s5p4d2f1g contracted to 6s4p3d1f1g pattern {711111/2111/211/2/1}
 Group   3 Type H   : 5s2p1d contracted to 3s1p1d pattern {311/2/1}
 Group   4 Type Li  : 12s5p4d2f1g contracted to 6s4p3d1f1g pattern {711111/2111/211/2/1}

Atom   0C    basis set group =>   1
Atom   1C    basis set group =>   1
Atom   2O    basis set group =>   2
Atom   3H    basis set group =>   3
Atom   4H    basis set group =>   3
Atom   5O    basis set group =>   2
Atom   6H    basis set group =>   3
Atom   7H    basis set group =>   3
Atom   8C    basis set group =>   1
Atom   9O    basis set group =>   2
Atom  10Li   basis set group =>   4
------------------------------------------------------------------------------
                             ORCA STARTUP CALCULATIONS
                           -- RI-GTO INTEGRALS CHOSEN --
------------------------------------------------------------------------------
------------------------------------------------------------------------------
                   ___                                                        
                  /   \      - P O W E R E D   B Y -                         
                 /     \                                                     
                 |  |  |   _    _      __       _____    __    __             
                 |  |  |  | |  | |    /  \     |  _  \  |  |  /  |          
                  \  \/   | |  | |   /    \    | | | |  |  | /  /          
                 / \  \   | |__| |  /  /\  \   | |_| |  |  |/  /          
                |  |  |   |  __  | /  /__\  \  |    /   |      \           
                |  |  |   | |  | | |   __   |  |    \   |  |\   \          
                \     /   | |  | | |  |  |  |  | |\  \  |  | \   \       
                 \___/    |_|  |_| |__|  |__|  |_| \__\ |__|  \__/        
                                                                              
                      - O R C A' S   B I G   F R I E N D -                    
                                      &                                       
                       - I N T E G R A L  F E E D E R -                       
                                                                              
 v1 FN, 2020, v2 2021, v3 2022-2024                                           
------------------------------------------------------------------------------


----------------------
SHARK INTEGRAL PACKAGE
----------------------

Number of atoms                             ...     11
Number of basis functions                   ...    118
Number of shells                            ...     56
Maximum angular momentum                    ...      2
Integral batch strategy                     ... SHARK/LIBINT Hybrid
RI-J (if used) integral strategy            ... SPLIT-RIJ (Revised 2003 algorithm where possible)
Printlevel                                  ...      1
Contraction scheme used                     ... SEGMENTED contraction
Prescreening option                         ... SCHWARTZ
   Thresh                                   ... 2.500e-11
   Tcut                                     ... 2.500e-12
   Tpresel                                  ... 2.500e-12 
Coulomb Range Separation                    ... NOT USED
Exchange Range Separation                   ... NOT USED
Multipole approximations                    ... NOT USED
Finite Nucleus Model                        ... NOT USED
CABS basis                                  ... NOT available
Auxiliary Coulomb fitting basis             ... AVAILABLE
   # of basis functions in Aux-J            ...    387
   # of shells in Aux-J                     ...    125
   Maximum angular momentum in Aux-J        ...      4
Auxiliary J/K fitting basis                 ... NOT available
Auxiliary Correlation fitting basis         ... NOT available
Auxiliary 'external' fitting basis          ... NOT available

Checking pre-screening integrals            ... done (  0.0 sec) Dimension = 56
Check shell pair data                       ... done (  0.0 sec)
Shell pair information
Shell pair cut-off parameter TPreSel        ...   2.5e-12
Total number of shell pairs                 ...      1596
Shell pairs after pre-screening             ...      1485
Total number of primitive shell pairs       ...      5777
Primitive shell pairs kept                  ...      4098
          la=0 lb=0:    452 shell pairs
          la=1 lb=0:    548 shell pairs
          la=1 lb=1:    180 shell pairs
          la=2 lb=0:    174 shell pairs
          la=2 lb=1:    110 shell pairs
          la=2 lb=2:     21 shell pairs

Calculating one electron integrals          ... done (  0.0 sec)
Calculating RI/J V-Matrix + Cholesky decomp.... done (  0.0 sec)
Calculating Nuclear repulsion               ... done (  0.0 sec) ENN=    268.648937040990 Eh

Diagonalization of the overlap matrix:
Smallest eigenvalue                        ... 2.834e-03
Time for diagonalization                   ...    0.009 sec
Threshold for overlap eigenvalues          ... 1.000e-07
Number of eigenvalues below threshold      ... 0
Time for construction of square roots      ...    0.001 sec
Total time needed                          ...    0.010 sec

-------------------
DFT GRID GENERATION
-------------------

General Integration Accuracy     IntAcc      ... 4.388
Radial Grid Type                 RadialGrid  ... OptM3 with GC (2021)
Angular Grid (max. ang.)         AngularGrid ... 4 (Lebedev-302)
Angular grid pruning method      GridPruning ... 4 (adaptive)
Weight generation scheme         WeightScheme... mBecke (2022)
Basis function cutoff            BFCut       ... 1.0000e-11
Integration weight cutoff        WCut        ... 1.0000e-14
Partially contracted basis set               ... off
Rotationally invariant grid construction     ... off
Angular grids for H and He will be reduced by one unit

Total number of grid points                  ...    55171
Total number of batches                      ...      869
Average number of points per batch           ...       63
Average number of grid points per atom       ...     5016

--------------------
COSX GRID GENERATION
--------------------

GRIDX 1
-------
General Integration Accuracy     IntAcc      ... 3.816
Radial Grid Type                 RadialGrid  ... OptM3 with GC (2021)
Angular Grid (max. ang.)         AngularGrid ... 1 (Lebedev-50)
Angular grid pruning method      GridPruning ... 4 (adaptive)
Weight generation scheme         WeightScheme... mBecke (2022)
Basis function cutoff            BFCut       ... 1.0000e-11
Integration weight cutoff        WCut        ... 1.0000e-14
Partially contracted basis set               ... on
Rotationally invariant grid construction     ... off
Angular grids for H and He will be reduced by one unit

Total number of grid points                  ...     7023
Total number of batches                      ...       62
Average number of points per batch           ...      113
Average number of grid points per atom       ...      638
UseSFitting                                  ... on

GRIDX 2
-------
General Integration Accuracy     IntAcc      ... 4.020
Radial Grid Type                 RadialGrid  ... OptM3 with GC (2021)
Angular Grid (max. ang.)         AngularGrid ... 2 (Lebedev-110)
Angular grid pruning method      GridPruning ... 4 (adaptive)
Weight generation scheme         WeightScheme... mBecke (2022)
Basis function cutoff            BFCut       ... 1.0000e-11
Integration weight cutoff        WCut        ... 1.0000e-14
Partially contracted basis set               ... on
Rotationally invariant grid construction     ... off
Angular grids for H and He will be reduced by one unit

Total number of grid points                  ...    15814
Total number of batches                      ...      130
Average number of points per batch           ...      121
Average number of grid points per atom       ...     1438
UseSFitting                                  ... on

GRIDX 3
-------
General Integration Accuracy     IntAcc      ... 4.338
Radial Grid Type                 RadialGrid  ... OptM3 with GC (2021)
Angular Grid (max. ang.)         AngularGrid ... 3 (Lebedev-194)
Angular grid pruning method      GridPruning ... 4 (adaptive)
Weight generation scheme         WeightScheme... mBecke (2022)
Basis function cutoff            BFCut       ... 1.0000e-11
Integration weight cutoff        WCut        ... 1.0000e-14
Partially contracted basis set               ... on
Rotationally invariant grid construction     ... off
Angular grids for H and He will be reduced by one unit

Total number of grid points                  ...    34908
Total number of batches                      ...      278
Average number of points per batch           ...      125
Average number of grid points per atom       ...     3173
UseSFitting                                  ... on
Initializing property integral containers    ... done (  0.0 sec)

SHARK setup successfully completed in   0.8 seconds

Maximum memory used throughout the entire STARTUP-calculation: 22.6 MB
-------------------------------------------------------------------------------
                                 ORCA GUESS
                   Start orbitals & Density for SCF / CASSCF
-------------------------------------------------------------------------------

------------
SCF SETTINGS
------------
Hamiltonian:
 Density Functional     Method          .... DFT(GTOs)
 Exchange Functional    Exchange        .... B88
   X-Alpha parameter    XAlpha          ....  0.666667
   Becke's b parameter  XBeta           ....  0.004200
 Correlation Functional Correlation     .... LYP
 LDA part of GGA corr.  LDAOpt          .... VWN-5
 Gradients option       PostSCFGGA      .... off
 Hybrid DFT is turned on
   Fraction HF Exchange ScalHFX         ....  0.200000
   Scaling of DF-GGA-X  ScalDFX         ....  0.720000
   Scaling of DF-GGA-C  ScalDFC         ....  0.810000
   Scaling of DF-LDA-C  ScalLDAC        ....  1.000000
   Perturbative correction              ....  0.000000
   NL short-range parameter             ....  4.800000
 RI-approximation to the Coulomb term is turned on
   Number of AuxJ basis functions       .... 387
   RIJ-COSX (HFX calculated with COS-X)).... on


General Settings:
 Integral files         IntName         .... li_ec_1_freq.inp
 Hartree-Fock type      HFTyp           .... RHF
 Total Charge           Charge          ....    1
 Multiplicity           Mult            ....    1
 Number of Electrons    NEL             ....   48
 Basis Dimension        Dim             ....  118
 Nuclear Repulsion      ENuc            ....    268.6489370410 Eh

Convergence Acceleration:
 AO-DIIS                CNVDIIS         .... on
   Start iteration      DIISMaxIt       ....    12
   Startup error        DIISStart       ....  0.200000
   # of expansion vecs  DIISMaxEq       ....     5
   Bias factor          DIISBfac        ....   1.050
   Max. coefficient     DIISMaxC        ....  10.000
 MO-DIIS                CNVKDIIS        .... off
 Trust-Rad. Augm. Hess. CNVTRAH         .... auto
   Auto Start mean grad. ratio tolernc. ....  1.125000
   Auto Start start iteration           ....    50
   Auto Start num. interpolation iter.  ....    10
   Max. Number of Micro iterations      ....    24
   Max. Number of Macro iterations      .... Maxiter - #DIIS iter
   Number of Davidson start vectors     ....     2
   Converg. threshold    (grad. norm)   ....   1.000e-05
   Grad. Scal. Fac. for Micro threshold ....   0.100
   Minimum threshold for Micro iter.    ....   1.000e-02
   NR start threshold (gradient norm)   ....   1.000e-04
   Initial trust radius                 ....   0.400
   Minimum AH scaling param. (alpha)    ....   1.000
   Maximum AH scaling param. (alpha)    .... 1000.000
   Quad. conv. algorithm                .... NR
   White noise on init. David. guess    .... on
   Maximum white noise                  ....   0.010
   Pseudo random numbers                .... off
   Inactive MOs                         .... canonical
   Orbital update algorithm             .... Taylor
   Preconditioner                       .... Diag
   Full preconditioner red. dimension   ....   250
 SOSCF                  CNVSOSCF        .... on
   Start iteration      SOSCFMaxIt      ....   150
   Startup grad/error   SOSCFStart      ....  0.003300
   Hessian update       SOSCFHessUp     .... L-BFGS
 Level Shifting         CNVShift        .... on
   Level shift para.    LevelShift      ....    0.2500
   Turn off err/grad.   ShiftErr        ....    0.0010
 Zerner damping         CNVZerner       .... off
 Static damping         CNVDamp         .... on
   Fraction old density DampFac         ....    0.7000
   Max. Damping (<1)    DampMax         ....    0.9800
   Min. Damping (>=0)   DampMin         ....    0.0000
   Turn off err/grad.   DampErr         ....    0.1000

SCF Procedure:
 Maximum # iterations   MaxIter         ....   125
 SCF integral mode      SCFMode         .... Direct
   Integral package                     .... SHARK and LIBINT hybrid scheme
 Reset frequency        DirectResetFreq ....    20
 Integral Threshold     Thresh          ....  2.500e-11 Eh
 Primitive CutOff       TCut            ....  2.500e-12 Eh

Convergence Tolerance:
 Convergence Check Mode ConvCheckMode   .... Total+1el-Energy
 Convergence forced     ConvForced      .... 0
 Energy Change          TolE            ....  1.000e-08 Eh
 1-El. energy change                    ....  1.000e-05 Eh
 Orbital Gradient       TolG            ....  1.000e-05
 Orbital Rotation angle TolX            ....  1.000e-05
 DIIS Error             TolErr          ....  5.000e-07

------------------------------
INITIAL GUESS: MODEL POTENTIAL
------------------------------
Loading Hartree-Fock densities                     ... done
Calculating cut-offs                               ... done
Initializing the effective Hamiltonian             ... done
Setting up the integral package (SHARK)            ... done
Starting the Coulomb interaction                   ... done (   0.0 sec)
Making the grid                                    ... done (   0.1 sec)
Mapping shells                                     ... done
Starting the XC term evaluation                    ... done (   0.1 sec)
  promolecular density results
     # of electrons  =     48.999638343
     EX              =    -43.024404687
     EC              =     -1.690539180
     EX+EC           =    -44.714943868
Transforming the Hamiltonian                       ... done (   0.0 sec)
Diagonalizing the Hamiltonian                      ... done (   0.0 sec)
Back transforming the eigenvectors                 ... done (   0.0 sec)
Now organizing SCF variables                       ... done
                      ------------------
                      INITIAL GUESS DONE (   0.2 sec)
                      ------------------
             **** ENERGY FILE WAS UPDATED (li_ec_1_freq.inp.en.tmp) ****
Finished Guess after   0.2 sec
Maximum memory used throughout the entire GUESS-calculation: 11.7 MB

-------------------------------------------------------------------------------------------
                                      ORCA LEAN-SCF
                              memory conserving SCF solver
-------------------------------------------------------------------------------------------

----------------------------------------D-I-I-S--------------------------------------------
Iteration    Energy (Eh)           Delta-E    RMSDP     MaxDP     DIISErr   Damp  Time(sec)
-------------------------------------------------------------------------------------------
               ***  Starting incremental Fock matrix formation  ***
    1    -349.1654215502897500     0.00e+00  4.02e-03  1.07e-01  3.00e-01  0.700   1.7
    2    -349.2515995025001416    -8.62e-02  2.21e-03  5.92e-02  1.15e-01  0.700   0.9
                               ***Turning on AO-DIIS***
    3    -349.2796172887075841    -2.80e-02  7.43e-04  1.19e-02  2.70e-02  0.700   0.9
    4    -349.2983972992305439    -1.88e-02  1.33e-03  2.10e-02  1.19e-02  0.000   0.9
    5    -349.3415819739349786    -4.32e-02  1.97e-04  3.56e-03  3.49e-03  0.000   0.9
                              *** Initializing SOSCF ***
---------------------------------------S-O-S-C-F--------------------------------------
Iteration    Energy (Eh)           Delta-E    RMSDP     MaxDP     MaxGrad    Time(sec)
--------------------------------------------------------------------------------------
    6    -349.3416857712450678    -1.04e-04  7.97e-05  1.32e-03  1.73e-03     0.8
               *** Restarting incremental Fock matrix formation ***
    7    -349.3416537899523178     3.20e-05  6.97e-05  1.59e-03  3.10e-04     1.7
    8    -349.3416485481296263     5.24e-06  4.38e-05  1.07e-03  7.29e-04     1.4
    9    -349.3416570838663233    -8.54e-06  9.65e-06  2.26e-04  5.72e-05     1.3
   10    -349.3416570070521061     7.68e-08  5.69e-06  1.42e-04  8.54e-05     1.2
   11    -349.3416571355936071    -1.29e-07  8.76e-07  1.51e-05  5.57e-06     1.2
   12    -349.3416571394625976    -3.87e-09  4.28e-07  8.38e-06  4.29e-06     1.0
                 **** Energy Check signals convergence ****

               *****************************************************
               *                     SUCCESS                       *
               *           SCF CONVERGED AFTER  12 CYCLES          *
               *****************************************************

Recomputing exchange energy using gridx3       ... done (    2.783 sec)
Old exchange energy                            :     -8.657967797 Eh
New exchange energy                            :     -8.657965081 Eh
Exchange energy change after final integration :      0.000002716 Eh
Total energy after final integration           :   -349.341654424 Eh
             **** ENERGY FILE WAS UPDATED (li_ec_1_freq.inp.en.tmp) ****

----------------
TOTAL SCF ENERGY
----------------

Total Energy       :       -349.34165442384540 Eh           -9506.06970 eV

Components:
Nuclear Repulsion  :        268.64893704099023 Eh            7310.30923 eV
Electronic Energy  :       -617.99059418045283 Eh          -16816.37900 eV
One Electron Energy:      -1001.06019909236159 Eh          -27240.23288 eV
Two Electron Energy:        383.06960491190875 Eh           10423.85389 eV

Virial components:
Potential Energy   :       -695.95759940812763 Eh          -18937.96907 eV
Kinetic Energy     :        346.61594498428224 Eh            9431.89937 eV
Virial Ratio       :          2.00786377395214

DFT components:
N(Alpha)           :       24.000020332300 electrons
N(Beta)            :       24.000020332300 electrons
N(Total)           :       48.000040664601 electrons
E(X)               :      -34.451800397391 Eh       
E(C)               :       -1.969594848796 Eh       
E(XC)              :      -36.421395246187 Eh       

---------------
SCF CONVERGENCE
---------------

  Last Energy change         ...    3.8690e-09  Tolerance :   1.0000e-08
  Last MAX-Density change    ...    8.3788e-06  Tolerance :   1.0000e-07
  Last RMS-Density change    ...    4.2819e-07  Tolerance :   5.0000e-09
  Last DIIS Error            ...    1.7339e-03  Tolerance :   5.0000e-07
  Last Orbital Gradient      ...    4.2864e-06  Tolerance :   1.0000e-05
  Last Orbital Rotation      ...    3.3543e-06  Tolerance :   1.0000e-05


----------------
ORBITAL ENERGIES
----------------

  NO   OCC          E(Eh)            E(eV) 
   0   2.0000     -19.360284      -526.8201 
   1   2.0000     -19.360110      -526.8154 
   2   2.0000     -19.316908      -525.6398 
   3   2.0000     -10.550678      -287.0985 
   4   2.0000     -10.414594      -283.3955 
   5   2.0000     -10.414508      -283.3932 
   6   2.0000      -2.209498       -60.1235 
   7   2.0000      -1.333884       -36.2968 
   8   2.0000      -1.211792       -32.9745 
   9   2.0000      -1.210143       -32.9297 
  10   2.0000      -0.935361       -25.4525 
  11   2.0000      -0.843159       -22.9435 
  12   2.0000      -0.769931       -20.9509 
  13   2.0000      -0.706554       -19.2263 
  14   2.0000      -0.703954       -19.1556 
  15   2.0000      -0.663794       -18.0627 
  16   2.0000      -0.642513       -17.4837 
  17   2.0000      -0.610726       -16.6187 
  18   2.0000      -0.592909       -16.1339 
  19   2.0000      -0.545204       -14.8357 
  20   2.0000      -0.536946       -14.6111 
  21   2.0000      -0.501424       -13.6444 
  22   2.0000      -0.495087       -13.4720 
  23   2.0000      -0.470718       -12.8089 
  24   0.0000      -0.183895        -5.0040 
  25   0.0000      -0.158050        -4.3008 
  26   0.0000      -0.112423        -3.0592 
  27   0.0000      -0.109717        -2.9855 
  28   0.0000      -0.101553        -2.7634 
  29   0.0000      -0.067621        -1.8401 
  30   0.0000      -0.057050        -1.5524 
  31   0.0000      -0.047672        -1.2972 
  32   0.0000      -0.021866        -0.5950 
  33   0.0000      -0.008302        -0.2259 
  34   0.0000       0.002634         0.0717 
*Only the first 10 virtual orbitals were printed.

                    ********************************
                    * MULLIKEN POPULATION ANALYSIS *
                    ********************************

-----------------------
MULLIKEN ATOMIC CHARGES
-----------------------
   0 C :    0.162700
   1 C :    0.162424
   2 O :   -0.258007
   3 H :    0.084075
   4 H :    0.087174
   5 O :   -0.259212
   6 H :    0.084022
   7 H :    0.087097
   8 C :    0.414208
   9 O :   -0.392609
  10 Li:    0.828129
Sum of atomic charges:    1.0000000

--------------------------------
MULLIKEN REDUCED ORBITAL CHARGES
--------------------------------
  0 C s       :     3.037350  s :     3.037350
      pz      :     1.085124  p :     2.745758
      px      :     0.953895
      py      :     0.706740
      dz2     :     0.009498  d :     0.054191
      dxz     :     0.006435
      dyz     :     0.011437
      dx2y2   :     0.016964
      dxy     :     0.009857

  1 C s       :     3.037449  s :     3.037449
      pz      :     1.087736  p :     2.745927
      px      :     0.985549
      py      :     0.672642
      dz2     :     0.009459  d :     0.054200
      dxz     :     0.007035
      dyz     :     0.010775
      dx2y2   :     0.018423
      dxy     :     0.008508

  2 O s       :     3.755571  s :     3.755571
      pz      :     1.721396  p :     4.483864
      px      :     1.520015
      py      :     1.242452
      dz2     :     0.002425  d :     0.018573
      dxz     :     0.003302
      dyz     :     0.002134
      dx2y2   :     0.003999
      dxy     :     0.006713

  3 H s       :     0.894229  s :     0.894229
      pz      :     0.012991  p :     0.021696
      px      :     0.005089
      py      :     0.003616

  4 H s       :     0.890904  s :     0.890904
      pz      :     0.010684  p :     0.021922
      px      :     0.005467
      py      :     0.005771

  5 O s       :     3.755753  s :     3.755753
      pz      :     1.722533  p :     4.484905
      px      :     1.477401
      py      :     1.284970
      dz2     :     0.002426  d :     0.018554
      dxz     :     0.003461
      dyz     :     0.001953
      dx2y2   :     0.005447
      dxy     :     0.005266

  6 H s       :     0.894283  s :     0.894283
      pz      :     0.012815  p :     0.021694
      px      :     0.005634
      py      :     0.003245

  7 H s       :     0.890982  s :     0.890982
      pz      :     0.010951  p :     0.021921
      px      :     0.006300
      py      :     0.004670

  8 C s       :     2.966482  s :     2.966482
      pz      :     0.795959  p :     2.440227
      px      :     0.815843
      py      :     0.828426
      dz2     :     0.010175  d :     0.179083
      dxz     :     0.022757
      dyz     :     0.033583
      dx2y2   :     0.045433
      dxy     :     0.067134

  9 O s       :     3.729352  s :     3.729352
      pz      :     1.594676  p :     4.651133
      px      :     1.789455
      py      :     1.267002
      dz2     :     0.001384  d :     0.012125
      dxz     :     0.000053
      dyz     :     0.003759
      dx2y2   :     0.004418
      dxy     :     0.002510

 10 Lis       :     2.039432  s :     2.039432
      pz      :     0.028674  p :     0.132439
      px      :     0.039063
      py      :     0.064702



                     *******************************
                     * LOEWDIN POPULATION ANALYSIS *
                     *******************************

----------------------
LOEWDIN ATOMIC CHARGES
----------------------
   0 C :    0.112674
   1 C :    0.112540
   2 O :   -0.040919
   3 H :    0.046455
   4 H :    0.051191
   5 O :   -0.041667
   6 H :    0.046400
   7 H :    0.051143
   8 C :    0.161694
   9 O :   -0.186439
  10 Li:    0.686929

-------------------------------
LOEWDIN REDUCED ORBITAL CHARGES
-------------------------------
  0 C s       :     2.865483  s :     2.865483
      pz      :     1.106311  p :     2.900168
      px      :     1.007899
      py      :     0.785958
      dz2     :     0.021158  d :     0.121675
      dxz     :     0.013630
      dyz     :     0.027346
      dx2y2   :     0.039116
      dxy     :     0.020424

  1 C s       :     2.865460  s :     2.865460
      pz      :     1.108329  p :     2.900288
      px      :     1.030524
      py      :     0.761436
      dz2     :     0.020993  d :     0.121712
      dxz     :     0.015819
      dyz     :     0.025145
      dx2y2   :     0.042591
      dxy     :     0.017164

  2 O s       :     3.454979  s :     3.454979
      pz      :     1.695936  p :     4.552122
      px      :     1.569404
      py      :     1.286782
      dz2     :     0.004284  d :     0.033817
      dxz     :     0.003606
      dyz     :     0.003779
      dx2y2   :     0.007881
      dxy     :     0.014267

  3 H s       :     0.887029  s :     0.887029
      pz      :     0.038759  p :     0.066516
      px      :     0.015737
      py      :     0.012020

  4 H s       :     0.882205  s :     0.882205
      pz      :     0.031508  p :     0.066604
      px      :     0.016842
      py      :     0.018255

  5 O s       :     3.455029  s :     3.455029
      pz      :     1.696884  p :     4.552840
      px      :     1.535263
      py      :     1.320692
      dz2     :     0.004268  d :     0.033798
      dxz     :     0.003958
      dyz     :     0.003429
      dx2y2   :     0.011014
      dxy     :     0.011129

  6 H s       :     0.887087  s :     0.887087
      pz      :     0.038204  p :     0.066513
      px      :     0.017308
      py      :     0.011001

  7 H s       :     0.882256  s :     0.882256
      pz      :     0.032296  p :     0.066601
      px      :     0.019236
      py      :     0.015069

  8 C s       :     2.779612  s :     2.779612
      pz      :     0.804612  p :     2.680973
      px      :     0.914936
      py      :     0.961424
      dz2     :     0.022023  d :     0.377721
      dxz     :     0.043379
      dyz     :     0.064189
      dx2y2   :     0.097940
      dxy     :     0.150190

  9 O s       :     3.457414  s :     3.457414
      pz      :     1.562895  p :     4.705190
      px      :     1.751737
      py      :     1.390557
      dz2     :     0.003540  d :     0.023836
      dxz     :     0.000056
      dyz     :     0.005117
      dx2y2   :     0.010849
      dxy     :     0.004274

 10 Lis       :     2.078370  s :     2.078370
      pz      :     0.038761  p :     0.234701
      px      :     0.050755
      py      :     0.145184



                      *****************************
                      * MAYER POPULATION ANALYSIS *
                      *****************************

  NA   - Mulliken gross atomic population
  ZA   - Total nuclear charge
  QA   - Mulliken gross atomic charge
  VA   - Mayer's total valence
  BVA  - Mayer's bonded valence
  FA   - Mayer's free valence

  ATOM       NA         ZA         QA         VA         BVA        FA
  0 C      5.8373     6.0000     0.1627     3.9335     3.9335    -0.0000
  1 C      5.8376     6.0000     0.1624     3.9333     3.9333    -0.0000
  2 O      8.2580     8.0000    -0.2580     2.2679     2.2679    -0.0000
  3 H      0.9159     1.0000     0.0841     0.9777     0.9777    -0.0000
  4 H      0.9128     1.0000     0.0872     0.9810     0.9810    -0.0000
  5 O      8.2592     8.0000    -0.2592     2.2666     2.2666    -0.0000
  6 H      0.9160     1.0000     0.0840     0.9777     0.9777    -0.0000
  7 H      0.9129     1.0000     0.0871     0.9810     0.9810    -0.0000
  8 C      5.5858     6.0000     0.4142     4.2526     4.2526    -0.0000
  9 O      8.3926     8.0000    -0.3926     2.0983     2.0983    -0.0000
 10 Li     2.1719     3.0000     0.8281     0.3352     0.3352     0.0000

  Mayer bond orders larger than 0.100000
B(  0-C ,  1-C ) :   1.0850 B(  0-C ,  2-O ) :   0.8892 B(  0-C ,  3-H ) :   0.9517 
B(  0-C ,  4-H ) :   0.9545 B(  1-C ,  5-O ) :   0.8890 B(  1-C ,  6-H ) :   0.9517 
B(  1-C ,  7-H ) :   0.9545 B(  2-O ,  8-C ) :   1.2581 B(  5-O ,  8-C ) :   1.2570 
B(  8-C ,  9-O ) :   1.6698 B(  9-O , 10-Li) :   0.2959 

-------
TIMINGS
-------

Total SCF time: 0 days 0 hours 0 min 16 sec 

Total time                  ....      16.743 sec
Sum of individual times     ....      16.731 sec  ( 99.9%)

SCF preparation             ....       0.041 sec  (  0.2%)
Fock matrix formation       ....      16.640 sec  ( 99.4%)
  Startup                   ....       0.002 sec  (  0.0% of F)
  Split-RI-J                ....       0.961 sec  (  5.8% of F)
  Chain of spheres X        ....      12.592 sec  ( 75.7% of F)
  XC integration            ....       3.064 sec  ( 18.4% of F)
    Basis function eval.    ....       1.329 sec  ( 43.4% of XC)
    Density eval.           ....       0.521 sec  ( 17.0% of XC)
    XC-Functional eval.     ....       0.177 sec  (  5.8% of XC)
    XC-Potential eval.      ....       0.859 sec  ( 28.0% of XC)
Diagonalization             ....       0.000 sec  (  0.0%)
Density matrix formation    ....       0.006 sec  (  0.0%)
Total Energy calculation    ....       0.004 sec  (  0.0%)
Population analysis         ....       0.005 sec  (  0.0%)
Orbital Transformation      ....       0.004 sec  (  0.0%)
Orbital Orthonormalization  ....       0.000 sec  (  0.0%)
DIIS solution               ....       0.019 sec  (  0.1%)
SOSCF solution              ....       0.011 sec  (  0.1%)
Finished LeanSCF after  16.7 sec

Maximum memory used throughout the entire LEANSCF-calculation: 12.5 MB

------------------------------------------------------------------------------
                         ORCA PROPERTY INTEGRAL CALCULATIONS
------------------------------------------------------------------------------

GBWName                                   ... li_ec_1_freq.inp.gbw
Number of atoms                           ...     11
Number of basis functions                 ...    118
Max core memory                           ...   1024 MB

Dipole integrals                          ... YES
Quadrupole integrals                      ...  NO
Linear momentum integrals                 ...  NO
Angular momentum integrals                ...  NO
Higher moments length integrals           ...  NO
Higher moments velocity integrals         ...  NO
Kinetic energy integrals                  ...  NO
GIAO right hand sides                     ...  NO
GIAO dipole derivative integrals          ...  NO
SOC integrals                             ...  NO
EPR diamagnetic integrals (GIAO)          ...  NO
EPR gauge integrals                       ...  NO
Field gradient integrals                  ...  NO (   0 nuclei)
Spin-dipole/Fermi contact integrals       ...  NO (   0 nuclei)
Contact density integrals                 ...  NO (   0 nuclei)
Nucleus-orbit integrals                   ...  NO (   0 nuclei)
Geometric perturbations                   ... YES (  11 nuclei)

Choice of electric origin   ... Center of mass
Position of electric origin ... (-13.5607,  1.5733,  0.1027) 
Choice of magnetic origin   ... GIAO
Position of magnetic origin ... (  0.0000,  0.0000,  0.0000) 

Calculating integrals                     ... Electric Dipole (Length)     done (  0.0 sec)
Calculating integrals                     ... Geometrical perturbation right hand sides

-----------------------
GEOMETRIC PERTURBATIONS (11 nuclei)
-----------------------

MaxCore                            ...   1024 MB
Number of batches                  ...      1

BATCH   0: Atoms    0 -   10 ( 33 perturbations)
   => H(core) and overlap derivative integrals     ... done (     0.0 sec)
   => Making and storing internal U-coefficients   ... done (     0.0 sec)
   => RI-J derivative integrals                    ... done (     0.8 sec)
   => RI-J response operators                      ... done (     0.3 sec)
   => Chain of spheres derivative integrals        ... done (     5.9 sec)
   => Chain of spheres response operator           ... done (     3.3 sec)
   => XC derivative integrals                      ... done (    22.6 sec)
   => XC response operators                        ... done (     5.1 sec)
   => Completing and storing right hand sides      ... done (     0.0 sec)
   => Total time for right hand sides =  38.2 sec

  geometrical perturbations done ( 38.2 sec)

Property integrals calculated in  38.2 sec

Maximum memory used throughout the entire PROPINT-calculation: 61.5 MB


-------------------------------------------------------------------------------
                          DFT DISPERSION CORRECTION                            
                                                                               
                              DFTD3 V3.1  Rev 1                                
                          USING Becke-Johnson damping                          
-------------------------------------------------------------------------------
The B3LYP functional is recognized
Active option DFTDOPT                   ...         4   

molecular C6(AA) [au] = 1448.615534 


            DFT-D V3
 parameters
 s6 scaling factor         :     1.0000 
 a1 scaling factor         :     0.3981 
 s8 scaling factor         :     1.9889 
 a2 scaling factor         :     4.4211 
 ad hoc parameters k1-k3   :    16.0000     1.3333    -4.0000 

 Edisp/kcal,au: -8.302083872531  -0.013230211383 
 E6   /kcal   :  -3.864638001 
 E8   /kcal   :  -4.437445871 
 % E8         :  53.449783683 

-------------------------   ----------------
Dispersion correction           -0.013230211
-------------------------   ----------------


-------------------------   --------------------
FINAL SINGLE POINT ENERGY      -349.354884635229
-------------------------   --------------------

------------------------------------------------------------------------------
                            ORCA SCF RESPONSE CALCULATION
------------------------------------------------------------------------------

GBWName                                 ... li_ec_1_freq.inp.gbw
Number of atoms                         ...     11
Number of basis functions               ...    118
Max core memory                         ...   1024 MB

Electric field perturbation             ...  NO
Quadrupolar field perturbation          ...  NO
Magnetic field perturbation (no GIAO)   ...  NO
Magnetic field perturbation (with GIAO) ...  NO
Linear momentum (velocity) perturbation ...  NO
Spin-orbit coupling perturbation        ...  NO
Choice of electric origin               ... Center of mass
Position of electric origin             ...   -13.560671     1.573315     0.102655
Choice of magnetic origin               ... GIAO
Position of magnetic origin             ...     0.000000     0.000000     0.000000
Nuclear geometric perturbations         ... YES (  33 perturbations)
Nucleus-orbit perturbations             ...  NO (   0 perturbations)
Spin-dipole/Fermi contact perturbations ...  NO (   0 perturbations)

Total number of real perturbations      ...     33
Total number of imaginary perturbations ...      0
Total number of triplet perturbations   ...      0
Total number of SOC perturbations       ...      0


                                **********************
                                * REAL PERTURBATIONS *
                                **********************



-------------------
SHARK CP-SCF DRIVER
-------------------

Dimension of the orbital basis          ...    118
Dimension of the CPSCF-problem          ...   2256
Number of operators                     ...      1
Max. number of iterations               ...    128
Convergence Tolerance                   ... 1.0e-04
Number of perturbations                 ...     33
Perturbation type                       ... REAL

----------------------------
POPLE LINEAR EQUATION SOLVER
----------------------------

  ITERATION   0:   ||err||_max =   3.3474e-01 (   2.1 sec   0/ 33 done)
  ITERATION   1:   ||err||_max =   3.9062e-02 (   2.3 sec   0/ 33 done)
  ITERATION   2:   ||err||_max =   1.0311e-02 (   2.3 sec   0/ 33 done)
  ITERATION   3:   ||err||_max =   2.7183e-03 (   2.4 sec   1/ 33 done)
  ITERATION   4:   ||err||_max =   8.2260e-04 (   2.3 sec   3/ 33 done)
  ITERATION   5:   ||err||_max =   2.6164e-04 (   2.6 sec  22/ 33 done)
  ITERATION   6:   ||err||_max =   7.0157e-05 (   1.2 sec  33/ 33 done)

CP-SCF equations solved in  15.3 sec
Response densities calculated in   0.0 sec

Maximum memory used throughout the entire SCFRESP-calculation: 61.5 MB

------------------------------------------------------------------------------
                              ORCA PROPERTY CALCULATIONS
------------------------------------------------------------------------------

GBWName                                 ... li_ec_1_freq.inp.gbw
Number of atoms                         ...     11
Number of basis functions               ...    118
Max core memory                         ...   1024 MB

Electric properties:
Dipole moment                           ... YES
Quadrupole moment                       ...  NO
Static polarizability (Dipole/Dipole)   ...  NO
Static polarizability (Dipole/Quad.)    ...  NO
Static polarizability (Quad./Quad.)     ...  NO
Static polarizability (Velocity)        ...  NO

Atomic electric properties:
Dipole moment                           ...  NO
Quadrupole moment                       ...  NO
Static polarizability                   ...  NO

Choice of electric origin               ... Center of mass
Position of electric origin             ...   -13.560671     1.573315     0.102655

General magnetic properties:
Magnetizability                         ...  NO

EPR properties:
g-Tensor (aka g-matrix)                 ...  NO
Zero-Field splitting spin-orbit         ...  NO
Zero-field splitting spin-spin          ...  NO
Hyperfine couplings                     ...  NO (   0 nuclei)
Quadrupole couplings                    ...  NO (   0 nuclei)
Contact density                         ...  NO (   0 nuclei)

NMR properties:
Chemical shifts                         ...  NO (   0 nuclei)
Spin-rotation constants                 ...  NO (   0 nuclei)
Spin-spin couplings                     ...  NO (   0 nuclei,    0 pairs)

Choice of magnetic origin               ... GIAO
Position of magnetic origin             ...     0.000000     0.000000     0.000000

Properties with geometric perturbations:
SCF Hessian                             ... YES
IR spectrum                             ... YES
VCD spectrum                            ...  NO
X-ray spectroscopy properties:
SCF XES/XAS/RIXS spectra                ...  NO


-------------
DIPOLE MOMENT
-------------

Method             : SCF
Type of density    : Electron Density
Multiplicity       :   1
Irrep              :   0
Energy             :  -349.3416544238453980 Eh
Relativity type    : 
Basis              : AO
                                X                 Y                 Z
Electronic contribution:     -0.778947231     -13.344068003       0.176297472
Nuclear contribution   :      0.669917120      10.870642103      -0.146966504
                        -----------------------------------------
Total Dipole Moment    :     -0.109030112      -2.473425900       0.029330968
                        -----------------------------------------
Magnitude (a.u.)       :      2.476001526
Magnitude (Debye)      :      6.293495726



--------------------
Rotational spectrum 
--------------------
 
Rotational constants in cm-1:             0.271535             0.077035             0.061542 
Rotational constants in MHz :          8140.404930          2309.448686          1844.987985 

Dipole components along the rotational axes: 
x,y,z [a.u.] :     2.475697     0.038795    -0.001147 
x,y,z [Debye]:     6.292722     0.098610    -0.002915 

 

Dipole moment calculation done in   0.0 sec 

-----------
SCF HESSIAN
-----------

Occupied/Occupied contributions to the Hessian:
   => Occupied/Occupied contributions              ... done (  0.0 sec)
Perturbed density contributions to the Hessian:
   => Perturbed density contributions              ... done (  0.0 sec)
Explicit contributions to the Hessian:
   => Nuclear repulsion Hessian                    ... done (  0.0 sec)
   => HCore and overlap Hessian                    ... done (  1.0 sec)
   => RI-J Hessian                                 ... done (  2.4 sec)
   => COSX Hessian                                 ... done (105.0 sec)
   => XC-Hessian                                   ... done ( 15.7 sec)
   => Van der Waals-Hessian                        ... done (  1.5 sec)
   => Explicit contributions done
Dipole derivatives                                 ... done (  0.0 sec)
Mass weighting the Hessian           ... done
Calculating normal modes             ... done
Scaling frequencies                  ... done

-----------------------
VIBRATIONAL FREQUENCIES
-----------------------

Scaling factor for frequencies =  1.000000000  (already applied!)

     0:       0.00 cm**-1
     1:       0.00 cm**-1
     2:       0.00 cm**-1
     3:       0.00 cm**-1
     4:       0.00 cm**-1
     5:       0.00 cm**-1
     6:      78.88 cm**-1
     7:      89.40 cm**-1
     8:     119.07 cm**-1
     9:     236.96 cm**-1
    10:     523.31 cm**-1
    11:     553.58 cm**-1
    12:     738.21 cm**-1
    13:     790.50 cm**-1
    14:     813.86 cm**-1
    15:     863.08 cm**-1
    16:     935.45 cm**-1
    17:     994.61 cm**-1
    18:    1031.30 cm**-1
    19:    1142.75 cm**-1
    20:    1160.17 cm**-1
    21:    1228.18 cm**-1
    22:    1233.96 cm**-1
    23:    1257.86 cm**-1
    24:    1387.47 cm**-1
    25:    1466.94 cm**-1
    26:    1504.88 cm**-1
    27:    1510.98 cm**-1
    28:    1836.31 cm**-1
    29:    3097.98 cm**-1
    30:    3098.92 cm**-1
    31:    3166.00 cm**-1
    32:    3176.71 cm**-1


------------
NORMAL MODES
------------

These modes are the Cartesian displacements weighted by the diagonal matrix
M(i,i)=1/sqrt(m[i]) where m[i] is the mass of the displaced atom
Thus, these vectors are normalized but *not* orthogonal

                  0          1          2          3          4          5    
      0       0.000000   0.000000   0.000000   0.000000   0.000000   0.000000
      1       0.000000   0.000000   0.000000   0.000000   0.000000   0.000000
      2       0.000000   0.000000   0.000000   0.000000   0.000000   0.000000
      3       0.000000   0.000000   0.000000   0.000000   0.000000   0.000000
      4       0.000000   0.000000   0.000000   0.000000   0.000000   0.000000
      5       0.000000   0.000000   0.000000   0.000000   0.000000   0.000000
      6       0.000000   0.000000   0.000000   0.000000   0.000000   0.000000
      7       0.000000   0.000000   0.000000   0.000000   0.000000   0.000000
      8       0.000000   0.000000   0.000000   0.000000   0.000000   0.000000
      9       0.000000   0.000000   0.000000   0.000000   0.000000   0.000000
     10       0.000000   0.000000   0.000000   0.000000   0.000000   0.000000
     11       0.000000   0.000000   0.000000   0.000000   0.000000   0.000000
     12       0.000000   0.000000   0.000000   0.000000   0.000000   0.000000
     13       0.000000   0.000000   0.000000   0.000000   0.000000   0.000000
     14       0.000000   0.000000   0.000000   0.000000   0.000000   0.000000
     15       0.000000   0.000000   0.000000   0.000000   0.000000   0.000000
     16       0.000000   0.000000   0.000000   0.000000   0.000000   0.000000
     17       0.000000   0.000000   0.000000   0.000000   0.000000   0.000000
     18       0.000000   0.000000   0.000000   0.000000   0.000000   0.000000
     19       0.000000   0.000000   0.000000   0.000000   0.000000   0.000000
     20       0.000000   0.000000   0.000000   0.000000   0.000000   0.000000
     21       0.000000   0.000000   0.000000   0.000000   0.000000   0.000000
     22       0.000000   0.000000   0.000000   0.000000   0.000000   0.000000
     23       0.000000   0.000000   0.000000   0.000000   0.000000   0.000000
     24       0.000000   0.000000   0.000000   0.000000   0.000000   0.000000
     25       0.000000   0.000000   0.000000   0.000000   0.000000   0.000000
     26       0.000000   0.000000   0.000000   0.000000   0.000000   0.000000
     27       0.000000   0.000000   0.000000   0.000000   0.000000   0.000000
     28       0.000000   0.000000   0.000000   0.000000   0.000000   0.000000
     29       0.000000   0.000000   0.000000   0.000000   0.000000   0.000000
     30       0.000000   0.000000   0.000000   0.000000   0.000000   0.000000
     31       0.000000   0.000000   0.000000   0.000000   0.000000   0.000000
     32       0.000000   0.000000   0.000000   0.000000   0.000000   0.000000
                  6          7          8          9         10         11    
      0      -0.098635   0.011806  -0.015930  -0.011799  -0.141848   0.025007
      1      -0.076803  -0.017755  -0.019782  -0.028733  -0.162640   0.175369
      2       0.019802  -0.150987  -0.158751  -0.133429   0.021435  -0.008546
      3      -0.086502  -0.015704  -0.013240  -0.008202  -0.118673  -0.014192
      4       0.093749  -0.009797   0.017611   0.026302   0.159657   0.191456
      5       0.006730   0.150073  -0.158994  -0.134918   0.016361   0.005004
      6       0.059486   0.017874   0.011494   0.029559   0.267522   0.070050
      7      -0.126131   0.010071   0.003049   0.008772  -0.102891   0.116714
      8      -0.010987   0.148694   0.101575   0.272890  -0.031999  -0.002003
      9      -0.145177   0.190376  -0.032682  -0.024552  -0.238118   0.011810
     10      -0.095748  -0.298806  -0.209309  -0.341808  -0.168168   0.162958
     11       0.031740  -0.331553  -0.222899  -0.246669   0.054043  -0.009377
     12      -0.157381  -0.148199  -0.018358  -0.025496  -0.240298  -0.014688
     13      -0.144940   0.203758   0.127896   0.216915  -0.276644   0.148883
     14       0.037777  -0.397313  -0.266312  -0.319036   0.055869  -0.007882
     15       0.076631  -0.014973   0.012277   0.028510   0.282276  -0.028923
     16       0.119911   0.010639  -0.001958  -0.004964   0.051434   0.126609
     17      -0.004081  -0.148044   0.111728   0.272054  -0.033921  -0.004184
     18      -0.115019  -0.229664  -0.004903   0.020588  -0.214054  -0.012272
     19       0.136483  -0.257489   0.212938   0.335187   0.179712   0.177987
     20       0.004786   0.337486  -0.231158  -0.257301   0.048413   0.009869
     21      -0.149099   0.170844  -0.035524  -0.054945  -0.204423   0.015697
     22       0.154964   0.195663  -0.137163  -0.220487   0.288682   0.171171
     23       0.005790   0.389531  -0.266250  -0.314170   0.047265   0.008779
     24       0.154593   0.001988   0.018354   0.002624   0.249373   0.006238
     25      -0.008813   0.004443   0.001208   0.000495  -0.014608  -0.061080
     26      -0.018910   0.000542   0.174456   0.052612  -0.039950  -0.001133
     27       0.275095   0.003381   0.024627  -0.046206  -0.491275  -0.037901
     28      -0.016650   0.004974   0.001822  -0.002057   0.038582  -0.136238
     29      -0.035093   0.000797   0.248676  -0.365960   0.055550   0.005339
     30      -0.812695  -0.008759  -0.079556   0.014983   0.014645  -0.037022
     31       0.031270   0.003565  -0.004229   0.000794   0.056693  -0.871898
     32       0.090798  -0.002423  -0.673630   0.125903  -0.002226   0.009843
                 12         13         14         15         16         17    
      0       0.151388   0.022222  -0.110580  -0.054003  -0.208053   0.216073
      1      -0.167825  -0.004784  -0.278442   0.043799   0.279177   0.021242
      2       0.048735  -0.032659   0.023491   0.067890  -0.014930   0.009771
      3       0.171635   0.022527   0.074064  -0.059172   0.242171  -0.211826
      4       0.149813   0.001182  -0.287752  -0.034047   0.248197   0.047542
      5       0.044398  -0.032668  -0.013536   0.068988   0.007674  -0.010566
      6      -0.100668  -0.033042  -0.300868   0.034342  -0.275252  -0.132160
      7      -0.138951  -0.042366   0.017651   0.063128  -0.141999  -0.013048
      8      -0.016063  -0.180030   0.016729  -0.037284   0.046354   0.008106
      9       0.461388  -0.152880   0.001503   0.374588  -0.237070   0.329827
     10      -0.336119   0.144321  -0.171494  -0.136734   0.126763   0.106681
     11      -0.132014   0.097838   0.016435  -0.176780  -0.064948   0.006580
     12      -0.160315   0.188064   0.106888  -0.446032  -0.383063   0.500904
     13      -0.068604  -0.125934  -0.061454   0.191842   0.218498   0.247651
     14      -0.198096   0.143383  -0.018455  -0.238156  -0.048324  -0.009611
     15      -0.082691  -0.027533   0.301026   0.024657   0.254695   0.129588
     16       0.150848   0.041100  -0.022909  -0.068012  -0.176886  -0.029694
     17      -0.020059  -0.181328  -0.017671  -0.035369  -0.041858  -0.007560
     18       0.500935  -0.170302  -0.010629   0.389210   0.252631  -0.312723
     19       0.270613  -0.120602  -0.163498   0.081776   0.095906   0.148348
     20      -0.140383   0.101801  -0.016578  -0.179874   0.060911  -0.010743
     21      -0.149990   0.203163  -0.125619  -0.466976   0.406652  -0.465854
     22       0.084525   0.104781  -0.046052  -0.138973   0.166318   0.309089
     23      -0.200049   0.140420   0.012858  -0.233477   0.042384   0.001200
     24      -0.051930   0.085303   0.021281   0.020653  -0.003424  -0.002189
     25       0.002453   0.005526   0.329509  -0.001034  -0.053559  -0.035922
     26      -0.003419   0.786593  -0.004574   0.044698   0.000745   0.000508
     27      -0.060498  -0.041978   0.022383   0.019617  -0.006089  -0.002932
     28       0.002828  -0.000056   0.429386  -0.001816  -0.102454  -0.049073
     29       0.011005  -0.216329  -0.005274  -0.011657   0.001338   0.000646
     30      -0.001708   0.001454  -0.021546   0.000564   0.002619   0.001552
     31       0.000185  -0.000654  -0.503780   0.000661   0.063057   0.036881
     32       0.000029   0.013251   0.005850   0.000416  -0.000732  -0.000425
                 18         19         20         21         22         23    
      0      -0.019847  -0.013017  -0.180364   0.011156   0.020932  -0.067211
      1      -0.366744  -0.020362  -0.193073   0.016258  -0.012928  -0.068589
      2       0.007228  -0.158678   0.062620  -0.055568   0.042403  -0.009839
      3       0.027167   0.010569   0.153618   0.008433  -0.022235  -0.057836
      4       0.368103  -0.017562  -0.217076  -0.019240  -0.011551   0.076103
      5      -0.003039   0.159154  -0.056806  -0.055757  -0.041326  -0.012261
      6       0.024563  -0.019013  -0.143859   0.007210  -0.023410  -0.063817
      7       0.293533   0.024734   0.348653  -0.008235   0.024426   0.023186
      8      -0.021115   0.042312  -0.021748   0.034889   0.023042   0.017042
      9      -0.147895  -0.190345  -0.102127   0.228992   0.427716   0.409773
     10      -0.157833   0.451346  -0.222766   0.383359   0.229536   0.391403
     11       0.132811   0.078433   0.008677  -0.015705  -0.032658  -0.037043
     12      -0.002163   0.219517   0.132982  -0.314600  -0.407375   0.317686
     13      -0.439745  -0.369105   0.331089  -0.439031  -0.295438   0.205926
     14       0.066420   0.201940  -0.132711   0.090851   0.014153  -0.003913
     15      -0.012426   0.022071   0.188671   0.008635   0.026687  -0.065552
     16      -0.295833   0.020872   0.327492   0.008482   0.020495  -0.013645
     17      -0.013116  -0.042941   0.012064   0.034441  -0.024202   0.017255
     18      -0.127086   0.247602   0.070285   0.172335  -0.398498   0.351200
     19       0.180906   0.420059  -0.232135  -0.407684   0.291761  -0.438854
     20       0.128267  -0.090764  -0.002136  -0.004231   0.025733  -0.025292
     21       0.053423  -0.266776  -0.089727  -0.250008   0.366305   0.291758
     22       0.441057  -0.341856   0.349590   0.474598  -0.350077  -0.248844
     23       0.054373  -0.191851   0.123232   0.078215  -0.006255   0.002404
     24      -0.127111  -0.001021  -0.011969  -0.027332  -0.001117   0.203500
     25       0.008132  -0.013736  -0.168080   0.001867  -0.009222  -0.013538
     26       0.027799   0.000254   0.002814   0.011319   0.000160  -0.019329
     27       0.092838  -0.001301  -0.019324   0.000378  -0.000853  -0.016836
     28      -0.006750  -0.022055  -0.323332  -0.000130  -0.015130   0.000587
     29      -0.014059   0.000281   0.004192  -0.003652   0.000212   0.000899
     30      -0.002185   0.000500   0.006587  -0.000282   0.000323   0.002225
     31       0.000895   0.011807   0.154570   0.000029   0.007688   0.000204
     32       0.000495  -0.000137  -0.001846   0.000008  -0.000098  -0.000162
                 24         25         26         27         28         29    
      0      -0.115746   0.083537   0.040677  -0.001829   0.008289  -0.031081
      1      -0.020192  -0.001460  -0.044639  -0.059002  -0.038625   0.030818
      2       0.010336   0.002827   0.004946   0.005940   0.000560  -0.020086
      3       0.112184   0.083117  -0.046045   0.006554  -0.013393   0.037810
      4      -0.035327  -0.009404  -0.038395   0.059594  -0.036960   0.029598
      5      -0.009614   0.002964  -0.003734   0.004379   0.000489   0.020517
      6       0.044561  -0.070707   0.003678   0.055440   0.027553   0.000219
      7      -0.033254   0.034706  -0.007970  -0.040619  -0.067481   0.000330
      8       0.002278   0.006414   0.001853  -0.002813  -0.000561   0.000215
      9       0.407783  -0.404081  -0.238720  -0.058793   0.031182   0.197644
     10       0.361352   0.118082   0.362591   0.443065   0.071159  -0.177882
     11      -0.065738   0.232276   0.255182   0.206594   0.043845   0.506765
     12       0.286332  -0.403189  -0.234480  -0.047473   0.011266   0.136312
     13       0.315481   0.044227   0.266528   0.363640   0.017241  -0.184858
     14      -0.012175  -0.272096  -0.349424  -0.310707  -0.055034  -0.275201
     15      -0.048521  -0.074489  -0.003960   0.060254  -0.035246  -0.000205
     16      -0.027198  -0.024955  -0.007069   0.033059  -0.062927   0.000444
     17      -0.001409   0.007228  -0.001679  -0.003804   0.002377  -0.000236
     18      -0.357082  -0.415372   0.281765  -0.119966  -0.021225  -0.238522
     19       0.412470  -0.058200   0.315977  -0.431046   0.072344  -0.178346
     20       0.055110   0.234828  -0.262002   0.223013  -0.045690  -0.543722
     21      -0.243204  -0.406157   0.266511  -0.099158  -0.008273  -0.173936
     22       0.350647   0.000993   0.239038  -0.367110   0.019239  -0.173474
     23       0.002827  -0.271557   0.338601  -0.306221   0.054232   0.307024
     24      -0.000432   0.182420  -0.001469  -0.145456   0.054422  -0.000199
     25      -0.006254  -0.011897  -0.009165   0.009523   0.857138  -0.002003
     26       0.000085  -0.019656   0.000219   0.015869  -0.011749   0.000032
     27       0.001086  -0.014935   0.000690   0.011020  -0.030330   0.000033
     28       0.017089   0.000687   0.009773  -0.000553  -0.474172   0.000454
     29      -0.000230   0.001639  -0.000139  -0.001317   0.006446  -0.000004
     30      -0.000092   0.001590  -0.000013  -0.001295   0.000421  -0.000006
     31      -0.002269   0.000063  -0.000279  -0.000044   0.014987  -0.000141
     32       0.000031  -0.000113   0.000005   0.000174  -0.000142   0.000002
                 30         31         32    
      0      -0.032264  -0.009274   0.007013
      1       0.035500   0.017463  -0.015202
      2      -0.016923   0.066492  -0.067185
      3      -0.033622   0.011396   0.008687
      4      -0.029102   0.014347   0.012149
      5      -0.014280  -0.067564  -0.066956
      6       0.000478  -0.000192  -0.000186
      7       0.001090  -0.000367  -0.000134
      8       0.000126  -0.000786   0.000734
      9       0.207313  -0.131225   0.149667
     10      -0.184937   0.116147  -0.129825
     11       0.527468  -0.320973   0.358036
     12       0.160933   0.235248  -0.228887
     13      -0.224408  -0.314580   0.303317
     14      -0.327554  -0.450090   0.433524
     15       0.000319   0.000142  -0.000168
     16      -0.001108  -0.000366   0.000180
     17       0.000137   0.000804   0.000721
     18       0.211399   0.147505   0.164711
     19       0.156605   0.108182   0.118233
     20       0.478629   0.321443   0.351795
     21       0.174424  -0.275608  -0.262979
     22       0.178751  -0.270959  -0.256300
     23      -0.309187   0.462063   0.437040
     24       0.001670  -0.000045  -0.000290
     25      -0.000195  -0.000670   0.000018
     26      -0.000084   0.000008  -0.000281
     27      -0.000101   0.000008  -0.000030
     28       0.000025   0.000125   0.000000
     29      -0.000037  -0.000003  -0.000101
     30       0.000011  -0.000001  -0.000007
     31      -0.000006  -0.000028   0.000000
     32      -0.000018  -0.000001  -0.000022


-----------
IR SPECTRUM
-----------

 Mode   freq       eps      Int      T**2         TX        TY        TZ
       cm**-1   L/(mol*cm) km/mol    a.u.
----------------------------------------------------------------------------
  6:     78.88   0.018078   91.36  0.071525  (-0.265387  0.011414  0.031050)
  7:     89.40   0.000030    0.15  0.000105  (-0.005614 -0.008465 -0.001428)
  8:    119.07   0.019268   97.37  0.050499  (-0.024639 -0.001360 -0.223360)
  9:    236.96   0.000320    1.62  0.000422  ( 0.004280 -0.000072  0.020092)
 10:    523.31   0.000738    3.73  0.000440  ( 0.020143  0.005850 -0.000156)
 11:    553.58   0.026135  132.08  0.014733  (-0.004277 -0.121296  0.001357)
 12:    738.21   0.001073    5.42  0.000454  ( 0.021202 -0.001259 -0.001601)
 13:    790.50   0.007585   38.33  0.002994  ( 0.008748  0.000132  0.054016)
 14:    813.86   0.035497  179.39  0.013611  (-0.006342 -0.116483  0.001500)
 15:    863.08   0.000539    2.72  0.000195  (-0.011966  0.001356  0.007065)
 16:    935.45   0.013169   66.55  0.004393  ( 0.003987  0.066154 -0.000913)
 17:    994.61   0.000790    3.99  0.000248  ( 0.000834  0.015724 -0.000206)
 18:   1031.30   0.000611    3.09  0.000185  (-0.009864  0.001136  0.009289)
 19:   1142.75   0.000541    2.73  0.000148  (-0.000898 -0.012121  0.000186)
 20:   1160.17   0.014114   71.32  0.003796  (-0.004570 -0.061437  0.000911)
 21:   1228.18   0.001556    7.86  0.000395  (-0.015814  0.000675 -0.012034)
 22:   1233.96   0.002416   12.21  0.000611  (-0.001943 -0.024636  0.000486)
 23:   1257.86   0.033642  170.01  0.008346  ( 0.090812 -0.006136 -0.007858)
 24:   1387.47   0.000007    0.03  0.000001  (-0.000042 -0.001216  0.000010)
 25:   1466.94   0.015114   76.38  0.003215  ( 0.056265 -0.003563 -0.006067)
 26:   1504.88   0.000003    0.02  0.000001  (-0.000407  0.000703 -0.000028)
 27:   1510.98   0.023269  117.59  0.004806  (-0.069178  0.004354  0.001093)
 28:   1836.31   0.215462  1088.86  0.036616  ( 0.011904  0.190964 -0.002586)
 29:   3097.98   0.000977    4.94  0.000098  ( 0.000939  0.009876  0.000088)
 30:   3098.92   0.000658    3.32  0.000066  (-0.006312  0.000755 -0.005082)
 31:   3166.00   0.000014    0.07  0.000001  ( 0.000079  0.001173 -0.000047)
 32:   3176.71   0.000047    0.24  0.000005  (-0.001332  0.000070 -0.001693)

* The epsilon (eps) is given for a Dirac delta lineshape.
** The dipole moment derivative (T) already includes vibrational overlap.

The first frequency considered to be a vibration is 6
The total number of vibrations considered is 27


--------------------------
THERMOCHEMISTRY AT 298.15K
--------------------------

Temperature         ...   298.15 K
Pressure            ...     1.00 atm
Total Mass          ...    95.00 AMU
Quasi RRHO          ...     True
Cut-Off Frequency   ...     1.00 cm^-1

Throughout the following assumptions are being made:
  (1) The electronic state is orbitally nondegenerate
  (2) There are no thermally accessible electronically excited states
  (3) Hindered rotations indicated by low frequency modes are not
      treated as such but are treated as vibrations and this may
      cause some error
  (4) All equations used are the standard statistical mechanics
      equations for an ideal gas
  (5) All vibrations are strictly harmonic

freq.      78.88  E(vib)   ...       0.49 
freq.      89.40  E(vib)   ...       0.47 
freq.     119.07  E(vib)   ...       0.44 
freq.     236.96  E(vib)   ...       0.32 
freq.     523.31  E(vib)   ...       0.13 
freq.     553.58  E(vib)   ...       0.12 
freq.     738.21  E(vib)   ...       0.06 
freq.     790.50  E(vib)   ...       0.05 
freq.     813.86  E(vib)   ...       0.05 
freq.     863.08  E(vib)   ...       0.04 
freq.     935.45  E(vib)   ...       0.03 
freq.     994.61  E(vib)   ...       0.02 
freq.    1031.30  E(vib)   ...       0.02 
freq.    1142.75  E(vib)   ...       0.01 
freq.    1160.17  E(vib)   ...       0.01 
freq.    1228.18  E(vib)   ...       0.01 
freq.    1233.96  E(vib)   ...       0.01 
freq.    1257.86  E(vib)   ...       0.01 
freq.    1387.47  E(vib)   ...       0.00 
freq.    1466.94  E(vib)   ...       0.00 
freq.    1504.88  E(vib)   ...       0.00 
freq.    1510.98  E(vib)   ...       0.00 
freq.    1836.31  E(vib)   ...       0.00 
freq.    3097.98  E(vib)   ...       0.00 
freq.    3098.92  E(vib)   ...       0.00 
freq.    3166.00  E(vib)   ...       0.00 
freq.    3176.71  E(vib)   ...       0.00 

------------
INNER ENERGY
------------

The inner energy is: U= E(el) + E(ZPE) + E(vib) + E(rot) + E(trans)
    E(el)   - is the total energy from the electronic structure calculation
              = E(kin-el) + E(nuc-el) + E(el-el) + E(nuc-nuc)
    E(ZPE)  - the the zero temperature vibrational energy from the frequency calculation
    E(vib)  - the the finite temperature correction to E(ZPE) due to population
              of excited vibrational states
    E(rot)  - is the rotational thermal energy
    E(trans)- is the translational thermal energy

Summary of contributions to the inner energy U:
Electronic energy                ...   -349.35488464 Eh
Zero point energy                ...      0.07754277 Eh      48.66 kcal/mol
Thermal vibrational correction   ...      0.00367091 Eh       2.30 kcal/mol
Thermal rotational correction    ...      0.00141627 Eh       0.89 kcal/mol
Thermal translational correction ...      0.00141627 Eh       0.89 kcal/mol
-----------------------------------------------------------------------
Total thermal energy                   -349.27083841 Eh


Summary of corrections to the electronic energy:
(perhaps to be used in another calculation)
Total thermal correction                  0.00650346 Eh       4.08 kcal/mol
Non-thermal (ZPE) correction              0.07754277 Eh      48.66 kcal/mol
-----------------------------------------------------------------------
Total correction                          0.08404623 Eh      52.74 kcal/mol


--------
ENTHALPY
--------

The enthalpy is H = U + kB*T
                kB is Boltzmann's constant
Total thermal energy              ...   -349.27083841 Eh 
Thermal Enthalpy correction       ...      0.00094421 Eh       0.59 kcal/mol
-----------------------------------------------------------------------
Total Enthalpy                    ...   -349.26989420 Eh


Note: Only C1 symmetry has been detected, increase convergence thresholds 
      if your molecule has a higher symmetry. Symmetry factor of 1.0 is   
      used for the rotational entropy correction. 
 

Note: Rotational entropy computed according to Herzberg 
Infrared and Raman Spectra, Chapter V,1, Van Nostrand Reinhold, 1945 
Point Group:  C1, Symmetry Number:   1  
Rotational constants in cm-1:     0.271535     0.077035     0.061542 

Vibrational entropy computed according to the QRRHO of S. Grimme
Chem.Eur.J. 2012 18 9955 using a reference frequency of 100.0 cm-1


-------
ENTROPY
-------

The entropy contributions are T*S = T*(S(el)+S(vib)+S(rot)+S(trans))
     S(el)   - electronic entropy
     S(vib)  - vibrational entropy
     S(rot)  - rotational entropy
     S(trans)- translational entropy
The entropies will be listed as multiplied by the temperature to get
units of energy

Electronic entropy                ...      0.00000000 Eh      0.00 kcal/mol
Vibrational entropy               ...      0.00660756 Eh      4.15 kcal/mol
Rotational entropy                ...      0.01265266 Eh      7.94 kcal/mol
Translational entropy             ...      0.01879864 Eh     11.80 kcal/mol
-----------------------------------------------------------------------
Final entropy term                ...      0.03805887 Eh     23.88 kcal/mol

In case the symmetry of your molecule has not been determined correctly
or in case you have a reason to use a different symmetry number we print 
out the resulting rotational entropy values for sn=1,12:

 non-linear molecules -----------------------------------
|  sn= 1 | S(rot)=       0.01265266 Eh      7.94 kcal/mol|
|  sn= 2 | S(rot)=       0.01199821 Eh      7.53 kcal/mol|
|  sn= 3 | S(rot)=       0.01161538 Eh      7.29 kcal/mol|
|  sn= 4 | S(rot)=       0.01134375 Eh      7.12 kcal/mol|
|  sn= 5 | S(rot)=       0.01113306 Eh      6.99 kcal/mol|
|  sn= 6 | S(rot)=       0.01096092 Eh      6.88 kcal/mol|
|  sn= 7 | S(rot)=       0.01081537 Eh      6.79 kcal/mol|
|  sn= 8 | S(rot)=       0.01068930 Eh      6.71 kcal/mol|
|  sn= 9 | S(rot)=       0.01057809 Eh      6.64 kcal/mol|
|  sn=10 | S(rot)=       0.01047861 Eh      6.58 kcal/mol|
|  sn=11 | S(rot)=       0.01038862 Eh      6.52 kcal/mol|
|  sn=12 | S(rot)=       0.01030646 Eh      6.47 kcal/mol|
 linear molecules ---------------------------------------
|  Dinfh | S(rot)=       0.00795821 Eh      4.99 kcal/mol|
|  Cinfv | S(rot)=       0.00861267 Eh      5.40 kcal/mol|
 --------------------------------------------------------


-------------------
GIBBS FREE ENERGY
-------------------

The Gibbs free energy is G = H - T*S

Total enthalpy                    ...   -349.26989420 Eh 
Total entropy correction          ...     -0.03805887 Eh    -23.88 kcal/mol
-----------------------------------------------------------------------
Final Gibbs free energy         ...   -349.30795306 Eh

For completeness - the Gibbs free energy minus the electronic energy
G-E(el)                           ...      0.04693157 Eh     29.45 kcal/mol


Maximum memory used throughout the entire PROP-calculation: 29.8 MB

--------------------------------
SUGGESTED CITATIONS FOR THIS RUN
--------------------------------

Below you find a list of papers that are relevant to this ORCA run
We neither can nor want to force you to cite these papers, but we appreciate if you do
You receive ORCA, which is the product of decades of hard work by many enthusiastic individuals, for free
The only thing we kindly ask in return is that you cite our papers,
We deeply appreciate it, if you show your appreciation for ORCA by not just citing the generic ORCA reference.

Please note that relegating all ORCA citations to the supporting information does *not* help us.
SI sections are not indexed - citations you put there will not count into any citation statistics
But we need these citations in order to attract the funding resources that allow us to do what we are doing

Therefore, if you are a happy ORCA user, please consider citing a few of the papers listed below in the main body of your paper

In addition to the list printed below, the program has created the file li_ec_1_freq.inp.bibtex that contains the list in bibtex format
You can import this file easily into all common literature databanks and citation aid programs


List of essential papers. We consider these as the minimum necessary citations

  1. Neese,F.
     Software update: the ORCA program system, version 5.0
     WIRES Comput. Molec. Sci., 2022 12(1)e1606
     doi.org/10.1002/wcms.1606

List of papers to cite with high priority. The work reported in these papers was absolutely
necessary for this run to complete.
Our perspective: the developers of density functionals and basis sets usually get cited in chemistry papers
Good! But without the algorithms to do something with them, the functionals or basis sets would not do anything.
Hence, in our opinion, the algorithm design and method developments papers are equally worthy of getting cited

  1. Neese,F.
     An improvement of the resolution of the identity approximation for the formation of the Coulomb matrix
     J. Comp. Chem., 2003 24(14)1740-1747
     doi.org/10.1002/jcc.10318
  2. Neese,F.; Wennmohs,F.; Hansen,A.; Becker,U.
     Efficient, approximate and parallel Hartree-Fock and hybrid DFT calculations. A 'chain-of-spheres' algorithm for the Hartree-Fock exchange
     Chem. Phys., 2009 356(1-3)98-109
     doi.org/10.1016/j.chemphys.2008.10.036
  3. Bykov,D.; Petrenko,T.; Izsak,R.; Kossmann,S.; Becker,U.; Valeev,E.; Neese,F.
     Efficient implementation of the analytic second derivatives of Hartree-Fock and hybrid DFT energies: a detailed analysis of different approximations
     Molec. Phys., 2015 113 1961-1977
     doi.org/10.1080/00268976.2015.1025114
  4. Helmich-Paris,B.; de Souza,B.; Neese,F.; Izsák,R.
     An improved chain of spheres for exchange algorithm
     J. Chem. Phys., 2021 155 104109
     doi.org/doi: 10.1063/5.0058766.
  5. Neese,F.
     The SHARK Integral Generation and Digestion System
     J. Comp. Chem., 2022  1-16
     doi.org/10.1002/jcc.26942
  6. Grimme,S.; Antony,J.; Ehrlich,S.; Krieg,H.
     A consistent and accurate ab initio parametrization of density functional dispersion correction (DFT-D) for the 94 elements H-Pu
     J. Chem. Phys., 2010 132 154104
     doi.org/10.1063/1.3382344
  7. Grimme,S.; Ehrlich,S.; Goerigk,L.
     Effect of the damping function in dispersion corrected density functional theory
     J. Comput. Chem., 2011 32(7)1456-1465
     doi.org/10.1002/jcc.21759

List of suggested additional citations. These are papers that are important in the 'surrounding' of 
of this run, or papers that preceded the highly important papers. If you like your results we are grateful for a citation.

  1. Izsak,R.; Neese,F.
     An overlap fitted chain of spheres exchange method
     J. Chem. Phys., 2011 135 144105
     doi.org/10.1063/1.3646921
  2. Izsak,R.; Hansen,A.; Neese,F.
     The resolution of identity and chain of spheres approximations for the LPNO-CCSD singles Fock term
     Molec. Phys., 2012 110 2413-2417
     doi.org/10.1080/00268976.2012.687466
  3. Neese,F.
     The ORCA program system
     WIRES Comput. Molec. Sci., 2012 2(1)73-78
     doi.org/10.1002/wcms.81
  4. Izsak,R.; Neese,F.; Klopper,W.
     Robust fitting techniques in the chain of spheres approximation to the Fock exchange: The role of the complementary space
     J. Chem. Phys., 2013 139 
     doi.org/10.1063/1.4819264
  5. Neese,F.
     Software update: the ORCA program system, version 4.0
     WIRES Comput. Molec. Sci., 2018 8(1)1-6
     doi.org/10.1002/wcms.1327
  6. Neese,F.; Wennmohs,F.; Becker,U.; Riplinger,C.
     The ORCA quantum chemistry program package
     J. Chem. Phys., 2020 152 Art. No. L224108
     doi.org/10.1063/5.0004608

List of optional additional citations

  1. Neese,F.
     Approximate second-order SCF convergence for spin unrestricted wavefunctions
     Chem. Phys. Lett., 2000 325(1-3)93-98
     doi.org/10.1016/s0009-2614(00)00662-x

Timings for individual modules:

Sum of individual times          ...      197.713 sec (=   3.295 min)
Startup calculation              ...        0.918 sec (=   0.015 min)   0.5 %
SCF iterations                   ...       17.116 sec (=   0.285 min)   8.7 %
Property integrals               ...       38.315 sec (=   0.639 min)  19.4 %
SCF Response                     ...       15.539 sec (=   0.259 min)   7.9 %
Property calculations            ...      125.825 sec (=   2.097 min)  63.6 %
                             ****ORCA TERMINATED NORMALLY****
TOTAL RUN TIME: 0 days 0 hours 3 minutes 17 seconds 927 msec
