
                                 *****************
                                 * O   R   C   A *
                                 *****************

                                            #,                                       
                                            ###                                      
                                            ####                                     
                                            #####                                    
                                            ######                                   
                                           ########,                                 
                                     ,,################,,,,,                         
                               ,,#################################,,                 
                          ,,##########################################,,             
                       ,#########################################, ''#####,          
                    ,#############################################,,   '####,        
                  ,##################################################,,,,####,       
                ,###########''''           ''''###############################       
              ,#####''   ,,,,##########,,,,          '''####'''          '####       
            ,##' ,,,,###########################,,,                        '##       
           ' ,,###''''                  '''############,,,                           
         ,,##''                                '''############,,,,        ,,,,,,###''
      ,#''                                            '''#######################'''  
     '                                                          ''''####''''         
             ,#######,   #######,   ,#######,      ##                                
            ,#'     '#,  ##    ##  ,#'     '#,    #''#        ,####,   ,####,        
            ##       ##  ##   ,#'  ##            #'  '#       #'       #'  '#        
            ##       ##  #######   ##           ,######,      #####,   #    #        
            '#,     ,#'  ##    ##  '#,     ,#' ,#      #,     #,   #   #,  ,#        
             '#######'   ##     ##  '#######'  #'      '#     '####' # '####'        



                #########################################################
                #                        -***-                          #
                #          Department of theory and spectroscopy        #
                #                                                       #
                #                      Frank Neese                      #
                #                                                       #
                #     Directorship, Architecture, Infrastructure        #
                #                    SHARK, DRIVERS                     #
                #        Core code/Algorithms in most modules           #
                #                                                       #
                #        Max Planck Institute fuer Kohlenforschung      #
                #                Kaiser Wilhelm Platz 1                 #
                #                 D-45470 Muelheim/Ruhr                 #
                #                      Germany                          #
                #                                                       #
                #                  All rights reserved                  #
                #                        -***-                          #
                #########################################################


                         Program Version 6.0.1  -  RELEASE   -


 With contributions from (in alphabetic order):
[Max-Planck-Institut fuer Kohlenforschung]                               
  Daniel Aravena         : Magnetic Suceptibility                        
  Michael Atanasov       : Ab Initio Ligand Field Theory (pilot matlab implementation)
  Alexander A. Auer      : GIAO ZORA, VPT2 properties, NMR spectrum      
  Ute Becker             : All parallelization in ORCA, NUMFREQ, NUMCALC 
  Giovanni Bistoni       : ED, misc. LED, open-shell LED, HFLD           
  Martin Brehm           : Molecular dynamics                            
  Dmytro Bykov           : pre 5.0 version of the SCF Hessian            
  Marcos Casanova-Páez   : Triplet and SCS-CIS(D). UHF-(DLPNO)-IP/EA/STEOM-CCSD. UHF-CVS-IP/STEOM-CCSD   
  Vijay G. Chilkuri      : MRCI spin determinant printing, contributions to CSF-ICE 
  Pauline Colinet        : FMM embedding                                 
  Dipayan Datta          : RHF DLPNO-CCSD density                        
  Achintya Kumar Dutta   : EOM-CC, STEOM-CC                              
  Nicolas Foglia         : Exact transition moments, OPA infrastructure, MCD improvements    
  Dmitry Ganyushin       : Spin-Orbit,Spin-Spin,Magnetic field MRCI      
  Miquel Garcia-Rates    : C-PCM and meta-GGA Hessian, CCSD/C-PCM, Gaussian charge scheme 
  Tiago L. C. Gouveia    : GS-ROHF, GS-ROCIS                             
  Yang Guo               : DLPNO-NEVPT2, F12-NEVPT2, CIM, IAO-localization        
  Andreas Hansen         : Spin unrestricted coupled pair/coupled cluster methods 
  Ingolf Harden          : AUTO-CI MPn and infrastructure                
  Benjamin Helmich-Paris : MC-RPA, TRAH-(SCF,CASSCF), AVAS, COSX integrals, SCF dyn. polar. 
  Lee Huntington         : MR-EOM, pCC                                   
  Robert Izsak           : Overlap fitted RIJCOSX, COSX-SCS-MP3, EOM     
  Riya Kayal             : Wick's Theorem for AUTO-CI, AUTO-CI UHF-CCSDT 
  Emily Kempfer          : AUTO-CI, RHF CISDT and CCSDT                  
  Christian Kollmar      : KDIIS, OOCD, Brueckner-CCSD(T), CCSD density, CASPT2, CASPT2-K, improved NEVPT2 
  Axel Koslowski         : Symmetry handling                             
  Simone Kossmann        : meta-GGA functionals, TD-DFT gradient, OOMP2, (MP2 Hessian; deprecated post 5.0) 
  Lucas Lang             : DCDCAS                                        
  Marvin Lechner         : AUTO-CI (C++ implementation), FIC-MRCC        
  Spencer Leger          : CASSCF response                               
  Dagmar Lenk            : GEPOL surface, SMD, ORCA-2-JSON               
  Dimitrios Liakos       : Extrapolation schemes; Compound Job, initial MDCI parallelization 
  Dimitrios Manganas     : Further ROCIS development; embedding schemes. LFT, Crystal Embedding 
  Dimitrios Pantazis     : SARC Basis sets                               
  Anastasios Papadopoulos: AUTO-CI, single reference methods and gradients 
  Taras Petrenko         : pre 6.0 DFT Hessian and TD-DFT gradient, (ASA, deprecated), ECA, 1-Electron XAS/XES, NRVS 
  Peter Pinski           : DLPNO-MP2, DLPNO-MP2 Gradient                 
  Christoph Reimann      : Effective Core Potentials                     
  Marius Retegan         : Local ZFS, SOC                                
  Christoph Riplinger    : Optimizer, TS searches, QM/MM, DLPNO-CCSD(T), (RO)-DLPNO pert. Triples 
  Michael Roemelt        : Original ROCIS implementation                 
  Masaaki Saitow         : Open-shell DLPNO-CCSD energy and density      
  Barbara Sandhoefer     : DKH picture change effects                    
  Kantharuban Sivalingam : CASSCF convergence/infrastructure, NEVPT2 and variants, FIC-MRCI 
  Bernardo de Souza      : ESD, SOC TD-DFT                               
  Georgi L. Stoychev     : AutoAux, RI-MP2 NMR, DLPNO-MP2 response, X2C  
  Van Anh Tran           : RI-MP2 g-tensors                              
  Willem Van den Heuvel  : Paramagnetic NMR                              
  Zikuan Wang            : NOTCH, Electric field optimization            
  Frank Wennmohs         : Technical directorship and infrastructure     
  Hang Xu                : AUTO-CI-Response properties                   
                                                                         
[FACCTs GmbH]                                                            
  Markus Bursch, Miquel Garcia-Rates, Christoph Riplinger, Bernardo de Souza, Georgi L. Stoychev 
                                                                 
  APM, Basis sets (HGBS, AHGBS, def-TZVP (Ac-Lr), def2-XVPD (La-Lu)), CI-OPT, improved COSX, DLPNO-Multilevel,           
  DOCKER, DRACO, updates on ESD, GOAT, IRC, LR-CPCM, MBIS, meta-GGA TD-DFT gradient, ML-optimized integration grids, 
  MM, NACMEs, nearIR, NEB, NEB-TS, NL-DFT gradient (VV10), 2- and 3-layer-ONIOM, interface openCOSMO-RS, QMMM,   
  Crystal-QMMM, SF, symmetry and pop. for TD-DFT, r2SCAN hybrids, SOLVATOR                                   
                                                                         
[Other institutions]                                                     
  V. Asgeirsson          : NEB                                           
  Christoph Bannwarth    : sTDA-DFT, sTD-DFT, PBEh-3c, B97-3c, D3        
  Sebastian Ehlert       : rSCAN, r2SCAN, r2SCAN-3c, D4, dhf basis sets  
  Marvin Friede          : D4 for Fr, Ra, Ac-Lr                          
  Lars Goerigk           : TD-DFT with DH, B97 family of functionals     
  Stefan Grimme          : VdW corrections, initial TS optimization, DFT functionals, gCP, sTDA/sTD-DF 
  Waldemar Hujo          : DFT-NL                                        
  H. Jonsson             : NEB                                           
  Holger Kruse           : gCP                                           
  Marcel Mueller         : wB97X-3c, vDZP basis set                      
  Hagen Neugebauer       : wr2SCAN                                       
  Tobias Risthaus        : range-separated hybrid DFT                    
  Lukas Wittmann         : regularized MP2, r2SCAN double-hybrids, wr2SCAN        
                                                                         
We gratefully acknowledge several colleagues who have allowed us to      
interface, adapt or use parts of their codes:                            
  Ed Valeev, F. Pavosevic, A. Kumar             : LibInt (2-el integral package), F12 methods 
  Garnet Chan, S. Sharma, J. Yang, R. Olivares  : DMRG                   
  Ulf Ekstrom                                   : XCFun DFT Library      
  Mihaly Kallay                                 : mrcc  (arbitrary order and MRCC methods)
  Frank Weinhold                                : gennbo (NPA and NBO analysis)           
  Simon Mueller                                 : openCOSMO-RS                            
  Christopher J. Cramer and Donald G. Truhlar   : smd solvation model                     
  S Lehtola, MJT Oliveira, MAL Marques          : LibXC Library                           
  Liviu Ungur et al                             : ANISO software                          


 Your calculation uses the libint2 library for the computation of 2-el integrals
 For citations please refer to: http://libint.valeyev.net

 Your ORCA version has been built with support for libXC version: 6.2.2
 For citations please refer to: https://libxc.gitlab.io

 This ORCA versions uses:
   CBLAS   interface :  Fast vector & matrix operations
   LAPACKE interface :  Fast linear algebra routines
   SCALAPACK package :  Parallel linear algebra routines
   Shared memory     :  Shared parallel matrices


Your calculation utilizes the atom-pairwise dispersion correction
with the Becke-Johnson damping scheme (D3BJ)


Warning: RI is on but no J-basis has been assigned. Assigning Def2/J (nothing to worry about!)
================================================================================

----- Orbital basis set information -----
Your calculation utilizes the basis: def2-SVP
   F. Weigend and R. Ahlrichs, Phys. Chem. Chem. Phys. 7, 3297 (2005).

----- AuxJ basis set information -----
Your calculation utilizes the auxiliary basis: def2/J
   F. Weigend, Phys. Chem. Chem. Phys. 8, 1057 (2006).

================================================================================
                                        WARNINGS
                       Please study these warnings very carefully!
================================================================================


WARNING: Geometry Optimization
  ===> : Switching off AutoStart
         For restart on a previous wavefunction, please use MOREAD

================================================================================
                                       INPUT FILE
================================================================================
NAME = li_ec2.inp
|  1> # avogadro generated ORCA input file 
|  2> # Basic Mode
|  3> # 
|  4> ! B3LYP D3BJ def2-SVP TightSCF Opt
|  5> 
|  6> * xyz 1 1
|  7>    C       -7.81809        2.43388        0.05560
|  8>    C       -6.31433        2.32278        0.08425
|  9>    O       -8.24933        1.17071        0.45052
| 10>    H       -8.17723        2.61537       -0.98457
| 11>    H       -8.17994        3.24406        0.72343
| 12>    O       -6.05598        1.02991       -0.37085
| 13>    H       -5.94470        2.39926        1.13250
| 14>    H       -5.83797        3.10492       -0.54421
| 15>    C       -7.23223        0.38949       -0.04922
| 16>    O       -7.53071       -0.80607       -0.64108
| 17>   Li       -7.15244       -2.09140        0.64683
| 18>    C       -7.56798       -7.42255        0.58309
| 19>    O       -8.70068       -8.10534        0.77377
| 20>    O       -6.47836       -8.19360        0.52162
| 21>    C       -8.39389       -9.44282        0.85299
| 22>    C       -6.86359       -9.50374        0.67771
| 23>    H       -6.37407       -9.93390        1.57779
| 24>    H       -6.58700      -10.08531       -0.22788
| 25>    H       -8.91253       -9.99534        0.04025
| 26>    H       -8.69944       -9.83845        1.84543
| 27>    O       -7.53200       -6.20860        0.47521
| 28> *
| 29> 
| 30> 
| 31>                          ****END OF INPUT****
================================================================================

                       *****************************
                       * Geometry Optimization Run *
                       *****************************

Geometry optimization settings:
Update method            Update   .... BFGS
Choice of coordinates    CoordSys .... (2022) Redundant Internals
Initial Hessian          InHess   .... Almloef's Model
Max. no of cycles        MaxIter  .... 63

Convergence Tolerances:
Energy Change            TolE     ....  5.0000e-06 Eh
Max. Gradient            TolMAXG  ....  3.0000e-04 Eh/bohr
RMS Gradient             TolRMSG  ....  1.0000e-04 Eh/bohr
Max. Displacement        TolMAXD  ....  4.0000e-03 bohr
RMS Displacement         TolRMSD  ....  2.0000e-03 bohr
Strict Convergence                .... False

------------------------------------------------------------------------------
                        ORCA OPTIMIZATION COORDINATE SETUP
------------------------------------------------------------------------------

The optimization will be done in redundant internal coordinates (2022)
Making redundant internal coordinates   ...  (2022 redundants) done
Evaluating the initial hessian          ...  (Almloef) done
Evaluating the coordinates              ...  done
Calculating the B-matrix                .... done
Calculating the G-matrix                .... done
Diagonalizing the G-matrix              .... done
Small eigenvalue found = 9.539e-03
Small eigenvalue found = 1.928e-02
The first mode is                       ....   51
The number of degrees of freedom        ....   57

    -----------------------------------------------------------------
                    Redundant Internal Coordinates


    -----------------------------------------------------------------
         Definition                    Initial Value    Approx d2E/dq
    -----------------------------------------------------------------
      1. B(C   1,C   0)                  1.5081         0.404826   
      2. B(O   2,C   0)                  1.3920         0.555600   
      3. B(H   3,C   0)                  1.1153         0.328151   
      4. B(H   4,C   0)                  1.1106         0.333914   
      5. B(O   5,C   1)                  1.3948         0.549884   
      6. B(H   6,C   1)                  1.1141         0.329543   
      7. B(H   7,C   1)                  1.1107         0.333749   
      8. B(C   8,O   5)                  1.3774         0.586173   
      9. B(C   8,O   2)                  1.3764         0.588218   
     10. B(O   9,C   8)                  1.3670         0.608883   
     11. B(Li 10,O   9)                  1.8585         0.485864   
     12. B(C  11,Li 10)                  5.3477         0.000001   
     13. B(O  12,C  11)                  1.3363         0.681752   
     14. B(O  13,C  11)                  1.3363         0.681754   
     15. B(C  14,O  12)                  1.3745         0.592387   
     16. B(C  15,O  13)                  1.3745         0.592400   
     17. B(C  15,C  14)                  1.5415         0.358108   
     18. B(H  16,C  15)                  1.1112         0.333094   
     19. B(H  17,C  15)                  1.1112         0.333090   
     20. B(H  18,C  14)                  1.1112         0.333094   
     21. B(H  19,C  14)                  1.1112         0.333089   
     22. B(O  20,Li 10)                  4.1382         0.000112   
     23. B(O  20,C  11)                  1.2193         1.047785   
     24. A(H   3,C   0,H   4)          109.7069         0.283291   
     25. A(C   1,C   0,O   2)          103.6901         0.392133   
     26. A(O   2,C   0,H   4)          112.9842         0.339995   
     27. A(C   1,C   0,H   4)          111.5433         0.324577   
     28. A(C   1,C   0,H   3)          110.5354         0.323650   
     29. A(O   2,C   0,H   3)          108.2110         0.339007   
     30. A(C   0,C   1,H   6)          110.0975         0.323875   
     31. A(H   6,C   1,H   7)          109.9829         0.283455   
     32. A(O   5,C   1,H   7)          112.8725         0.339380   
     33. A(C   0,C   1,O   5)          104.2869         0.391424   
     34. A(O   5,C   1,H   6)          108.0094         0.338662   
     35. A(C   0,C   1,H   7)          111.4088         0.324550   
     36. A(C   0,O   2,C   8)          100.5516         0.416169   
     37. A(C   1,O   5,C   8)          101.3392         0.415147   
     38. A(O   2,C   8,O   5)          116.8675         0.420160   
     39. A(O   5,C   8,O   9)          119.4722         0.422758   
     40. A(O   2,C   8,O   9)          119.4875         0.423021   
     41. A(C   8,O   9,Li 10)          105.0929         0.444377   
     42. A(O   9,Li 10,C  11)          131.7126         0.110274   
     43. A(O   9,Li 10,O  20)          129.8432         0.145360   
     44. A(Li 10,C  11,O  13)          120.8255         0.109675   
     45. A(Li 10,C  11,O  12)          124.9988         0.109675   
     46. A(O  12,C  11,O  13)          113.7618         0.443317   
     47. A(O  12,C  11,O  20)          123.1195         0.479514   
     48. A(Li 10,C  11,O  20)            6.3846         0.111787   
     49. A(O  13,C  11,O  20)          123.1187         0.479514   
     50. A(C  11,O  12,C  14)          108.4354         0.432226   
     51. A(C  11,O  13,C  15)          108.4359         0.432228   
     52. A(O  12,C  14,H  19)          109.6664         0.343521   
     53. A(C  15,C  14,H  18)          111.1322         0.318001   
     54. A(O  12,C  14,H  18)          109.7245         0.343521   
     55. A(O  12,C  14,C  15)          104.6835         0.388145   
     56. A(H  18,C  14,H  19)          110.3559         0.283840   
     57. A(C  15,C  14,H  19)          111.1278         0.318000   
     58. A(H  16,C  15,H  17)          110.3563         0.283840   
     59. A(C  14,C  15,H  17)          111.1275         0.318000   
     60. A(O  13,C  15,H  17)          109.6667         0.343522   
     61. A(C  14,C  15,H  16)          111.1320         0.318001   
     62. A(O  13,C  15,H  16)          109.7246         0.343523   
     63. A(O  13,C  15,C  14)          104.6833         0.388146   
     64. A(Li 10,O  20,C  11)          171.7379         0.149368   
     65. D(H   6,C   1,C   0,H   3)    165.8138         0.012992   
     66. D(H   6,C   1,C   0,O   2)    -78.4182         0.012992   
     67. D(O   5,C   1,C   0,H   4)    159.1207         0.012992   
     68. D(H   6,C   1,C   0,H   4)     43.4687         0.012992   
     69. D(O   5,C   1,C   0,H   3)    -78.5342         0.012992   
     70. D(O   5,C   1,C   0,O   2)     37.2338         0.012992   
     71. D(C   8,O   2,C   0,H   3)     85.9759         0.024631   
     72. D(C   8,O   2,C   0,C   1)    -31.4255         0.024631   
     73. D(C   8,O   2,C   0,H   4)   -152.3461         0.024631   
     74. D(C   8,O   5,C   1,H   7)   -146.0509         0.024100   
     75. D(C   8,O   5,C   1,H   6)     92.1356         0.024100   
     76. D(C   8,O   5,C   1,C   0)    -24.9706         0.024100   
     77. D(O   2,C   8,O   5,C   1)      5.7074         0.025021   
     78. D(O   9,C   8,O   2,C   0)   -139.2547         0.025207   
     79. D(O   5,C   8,O   2,C   0)     17.6857         0.025207   
     80. D(O   9,C   8,O   5,C   1)    162.6515         0.025021   
     81. D(Li 10,O   9,C   8,O   5)    102.4674         0.027131   
     82. D(Li 10,O   9,C   8,O   2)   -101.1947         0.027131   
     83. D(C  11,Li 10,O   9,C   8)    179.7259         0.003478   
     84. D(O  20,Li 10,O   9,C   8)    179.4943         0.003478   
     85. D(O  20,C  11,Li 10,O   9)     -5.4336         0.001500   
     86. D(O  13,C  11,Li 10,O   9)    107.4477         0.001500   
     87. D(O  12,C  11,Li 10,O   9)    -80.4082         0.001500   
     88. D(C  14,O  12,C  11,Li 10)   -172.5957         0.038263   
     89. D(C  14,O  12,C  11,O  20)   -179.9632         0.038263   
     90. D(C  14,O  12,C  11,O  13)      0.0362         0.038263   
     91. D(C  15,O  13,C  11,Li 10)    173.0092         0.038264   
     92. D(C  15,O  13,C  11,O  20)   -179.9646         0.038264   
     93. D(C  15,O  13,C  11,O  12)      0.0360         0.038264   
     94. D(H  18,C  14,O  12,C  11)   -119.4159         0.028226   
     95. D(C  15,C  14,O  12,C  11)     -0.0836         0.028226   
     96. D(H  19,C  14,O  12,C  11)    119.2143         0.028226   
     97. D(H  16,C  15,C  14,H  19)      0.1738         0.010296   
     98. D(H  16,C  15,C  14,H  18)   -123.1358         0.010296   
     99. D(H  16,C  15,C  14,O  12)    118.4834         0.010296   
    100. D(O  13,C  15,C  14,H  19)   -118.2067         0.010296   
    101. D(O  13,C  15,C  14,H  18)    118.4836         0.010296   
    102. D(O  13,C  15,C  14,O  12)      0.1028         0.010296   
    103. D(H  17,C  15,O  13,C  11)    119.2140         0.028227   
    104. D(H  16,C  15,O  13,C  11)   -119.4154         0.028227   
    105. D(C  14,C  15,O  13,C  11)     -0.0835         0.028227   
    106. D(Li 10,O  20,C  11,O  13)    -70.8433         0.101088   
    107. D(Li 10,O  20,C  11,O  12)    109.1560         0.101088   
    108. D(C  11,O  20,Li 10,O   9)    174.7176         0.001500   
    -----------------------------------------------------------------

Number of atoms                         .... 21
Number of degrees of freedom            .... 108


         *************************************************************
         *                GEOMETRY OPTIMIZATION CYCLE   1            *
         *************************************************************
---------------------------------
CARTESIAN COORDINATES (ANGSTROEM)
---------------------------------
  C     -7.818090    2.433880    0.055600
  C     -6.314330    2.322780    0.084250
  O     -8.249330    1.170710    0.450520
  H     -8.177230    2.615370   -0.984570
  H     -8.179940    3.244060    0.723430
  O     -6.055980    1.029910   -0.370850
  H     -5.944700    2.399260    1.132500
  H     -5.837970    3.104920   -0.544210
  C     -7.232230    0.389490   -0.049220
  O     -7.530710   -0.806070   -0.641080
  Li    -7.152440   -2.091400    0.646830
  C     -7.567980   -7.422550    0.583090
  O     -8.700680   -8.105340    0.773770
  O     -6.478360   -8.193600    0.521620
  C     -8.393890   -9.442820    0.852990
  C     -6.863590   -9.503740    0.677710
  H     -6.374070   -9.933900    1.577790
  H     -6.587000  -10.085310   -0.227880
  H     -8.912530   -9.995340    0.040250
  H     -8.699440   -9.838450    1.845430
  O     -7.532000   -6.208600    0.475210

----------------------------
CARTESIAN COORDINATES (A.U.)
----------------------------
  NO LB      ZA    FRAG     MASS         X           Y           Z
   0 C     6.0000    0    12.011  -14.774049    4.599367    0.105069
   1 C     6.0000    0    12.011  -11.932354    4.389418    0.159209
   2 O     8.0000    0    15.999  -15.588974    2.212321    0.851359
   3 H     1.0000    0     1.008  -15.452725    4.942333   -1.860568
   4 H     1.0000    0     1.008  -15.457846    6.130385    1.367085
   5 O     8.0000    0    15.999  -11.444144    1.946248   -0.700805
   6 H     1.0000    0     1.008  -11.233855    4.533944    2.140115
   7 H     1.0000    0     1.008  -11.032164    5.867448   -1.028408
   8 C     6.0000    0    12.011  -13.666934    0.736029   -0.093012
   9 O     8.0000    0    15.999  -14.230979   -1.523252   -1.211466
  10 Li    3.0000    0     6.941  -13.516153   -3.952173    1.222332
  11 C     6.0000    0    12.011  -14.301410  -14.026587    1.101880
  12 O     8.0000    0    15.999  -16.441902  -15.316873    1.462213
  13 O     8.0000    0    15.999  -12.242326  -15.483660    0.985719
  14 C     6.0000    0    12.011  -15.862153  -17.844344    1.611917
  15 C     6.0000    0    12.011  -12.970305  -17.959466    1.280686
  16 H     1.0000    0     1.008  -12.045247  -18.772350    2.981591
  17 H     1.0000    0     1.008  -12.447626  -19.058474   -0.430631
  18 H     1.0000    0     1.008  -16.842241  -18.888455    0.076061
  19 H     1.0000    0     1.008  -16.439559  -18.591976    3.487357
  20 O     8.0000    0    15.999  -14.233417  -11.732554    0.898017

--------------------------------
INTERNAL COORDINATES (ANGSTROEM)
--------------------------------
 C      0   0   0     0.000000000000     0.00000000     0.00000000
 C      1   0   0     1.508130687341     0.00000000     0.00000000
 O      1   2   0     1.391951217859   103.69010250     0.00000000
 H      1   2   3     1.115290898645   110.53544048   244.23198851
 H      1   2   3     1.110551198189   111.54325711   121.88691980
 O      2   1   3     1.394766492787   104.28694773    37.23377788
 H      2   1   3     1.114138047910   110.09748073   281.58177732
 H      2   1   3     1.110686184662   111.40879917   159.28355425
 C      3   1   2     1.376421870649   100.55155370   328.57450391
 O      9   3   1     1.367023146695   119.48751228   220.74525142
 Li    10   9   3     1.858459999543   105.09285045   258.80527201
 C     11  10   9     5.347700122642   131.71255807   179.72586264
 O     12  11  10     1.336252347613   124.99880143   279.59183331
 O     12  11  10     1.336251625930   120.82546189   107.44765730
 C     13  12  11     1.374499422663   108.43540917   187.40431290
 C     14  12  11     1.374493747021   108.43588230   173.00915983
 H     16  14  12     1.111220708230   109.72461458   240.58460256
 H     16  14  12     1.111224073308   109.66671091   119.21403656
 H     15  13  12     1.111220998542   109.72452842   240.58413327
 H     15  13  12     1.111225023566   109.66640224   119.21429067
 O     12  11  10     1.219265048010     6.38458044   354.56641584

---------------------------
INTERNAL COORDINATES (A.U.)
---------------------------
 C      0   0   0     0.000000000000     0.00000000     0.00000000
 C      1   0   0     2.849953973237     0.00000000     0.00000000
 O      1   2   0     2.630406593532   103.69010250     0.00000000
 H      1   2   3     2.107594358094   110.53544048   244.23198851
 H      1   2   3     2.098637622276   111.54325711   121.88691980
 O      2   1   3     2.635726692136   104.28694773    37.23377788
 H      2   1   3     2.105415785931   110.09748073   281.58177732
 H      2   1   3     2.098892709742   111.40879917   159.28355425
 C      3   1   2     2.601060380266   100.55155370   328.57450391
 O      9   3   1     2.583299365985   119.48751228   220.74525142
 Li    10   9   3     3.511980429983   105.09285045   258.80527201
 C     11  10   9    10.105688678130   131.71255807   179.72586264
 O     12  11  10     2.525150982797   124.99880143   279.59183331
 O     12  11  10     2.525149619014   120.82546189   107.44765730
 C     13  12  11     2.597427480065   108.43540917   187.40431290
 C     14  12  11     2.597416754657   108.43588230   173.00915983
 H     16  14  12     2.099902812897   109.72461458   240.58460256
 H     16  14  12     2.099909171973   109.66671091   119.21403656
 H     15  13  12     2.099903361506   109.72452842   240.58413327
 H     15  13  12     2.099910967701   109.66640224   119.21429067
 O     12  11  10     2.304077025402     6.38458044   354.56641584

---------------------
BASIS SET INFORMATION
---------------------
There are 4 groups of distinct atoms

 Group   1 Type C   : 7s4p1d contracted to 3s2p1d pattern {511/31/1}
 Group   2 Type O   : 7s4p1d contracted to 3s2p1d pattern {511/31/1}
 Group   3 Type H   : 4s1p contracted to 2s1p pattern {31/1}
 Group   4 Type Li  : 7s3p contracted to 3s2p pattern {511/21}

Atom   0C    basis set group =>   1
Atom   1C    basis set group =>   1
Atom   2O    basis set group =>   2
Atom   3H    basis set group =>   3
Atom   4H    basis set group =>   3
Atom   5O    basis set group =>   2
Atom   6H    basis set group =>   3
Atom   7H    basis set group =>   3
Atom   8C    basis set group =>   1
Atom   9O    basis set group =>   2
Atom  10Li   basis set group =>   4
Atom  11C    basis set group =>   1
Atom  12O    basis set group =>   2
Atom  13O    basis set group =>   2
Atom  14C    basis set group =>   1
Atom  15C    basis set group =>   1
Atom  16H    basis set group =>   3
Atom  17H    basis set group =>   3
Atom  18H    basis set group =>   3
Atom  19H    basis set group =>   3
Atom  20O    basis set group =>   2
---------------------------------
AUXILIARY/J BASIS SET INFORMATION
---------------------------------
There are 4 groups of distinct atoms

 Group   1 Type C   : 12s5p4d2f1g contracted to 6s4p3d1f1g pattern {711111/2111/211/2/1}
 Group   2 Type O   : 12s5p4d2f1g contracted to 6s4p3d1f1g pattern {711111/2111/211/2/1}
 Group   3 Type H   : 5s2p1d contracted to 3s1p1d pattern {311/2/1}
 Group   4 Type Li  : 12s5p4d2f1g contracted to 6s4p3d1f1g pattern {711111/2111/211/2/1}

Atom   0C    basis set group =>   1
Atom   1C    basis set group =>   1
Atom   2O    basis set group =>   2
Atom   3H    basis set group =>   3
Atom   4H    basis set group =>   3
Atom   5O    basis set group =>   2
Atom   6H    basis set group =>   3
Atom   7H    basis set group =>   3
Atom   8C    basis set group =>   1
Atom   9O    basis set group =>   2
Atom  10Li   basis set group =>   4
Atom  11C    basis set group =>   1
Atom  12O    basis set group =>   2
Atom  13O    basis set group =>   2
Atom  14C    basis set group =>   1
Atom  15C    basis set group =>   1
Atom  16H    basis set group =>   3
Atom  17H    basis set group =>   3
Atom  18H    basis set group =>   3
Atom  19H    basis set group =>   3
Atom  20O    basis set group =>   2
------------------------------------------------------------------------------
                             ORCA STARTUP CALCULATIONS
                           -- RI-GTO INTEGRALS CHOSEN --
------------------------------------------------------------------------------
------------------------------------------------------------------------------
                   ___                                                        
                  /   \      - P O W E R E D   B Y -                         
                 /     \                                                     
                 |  |  |   _    _      __       _____    __    __             
                 |  |  |  | |  | |    /  \     |  _  \  |  |  /  |          
                  \  \/   | |  | |   /    \    | | | |  |  | /  /          
                 / \  \   | |__| |  /  /\  \   | |_| |  |  |/  /          
                |  |  |   |  __  | /  /__\  \  |    /   |      \           
                |  |  |   | |  | | |   __   |  |    \   |  |\   \          
                \     /   | |  | | |  |  |  |  | |\  \  |  | \   \       
                 \___/    |_|  |_| |__|  |__|  |_| \__\ |__|  \__/        
                                                                              
                      - O R C A' S   B I G   F R I E N D -                    
                                      &                                       
                       - I N T E G R A L  F E E D E R -                       
                                                                              
 v1 FN, 2020, v2 2021, v3 2022-2024                                           
------------------------------------------------------------------------------


----------------------
SHARK INTEGRAL PACKAGE
----------------------

Number of atoms                             ...     21
Number of basis functions                   ...    217
Number of shells                            ...    101
Maximum angular momentum                    ...      2
Integral batch strategy                     ... SHARK/LIBINT Hybrid
RI-J (if used) integral strategy            ... SPLIT-RIJ (Revised 2003 algorithm where possible)
Printlevel                                  ...      1
Contraction scheme used                     ... SEGMENTED contraction
Prescreening option                         ... SCHWARTZ
   Thresh                                   ... 2.500e-11
   Tcut                                     ... 2.500e-12
   Tpresel                                  ... 2.500e-12 
Coulomb Range Separation                    ... NOT USED
Exchange Range Separation                   ... NOT USED
Multipole approximations                    ... NOT USED
Finite Nucleus Model                        ... NOT USED
CABS basis                                  ... NOT available
Auxiliary Coulomb fitting basis             ... AVAILABLE
   # of basis functions in Aux-J            ...    725
   # of shells in Aux-J                     ...    235
   Maximum angular momentum in Aux-J        ...      4
Auxiliary J/K fitting basis                 ... NOT available
Auxiliary Correlation fitting basis         ... NOT available
Auxiliary 'external' fitting basis          ... NOT available

Checking pre-screening integrals            ... done (  0.0 sec) Dimension = 101
Check shell pair data                       ... done (  0.0 sec)
Shell pair information
Shell pair cut-off parameter TPreSel        ...   2.5e-12
Total number of shell pairs                 ...      5151
Shell pairs after pre-screening             ...      2895
Total number of primitive shell pairs       ...     19106
Primitive shell pairs kept                  ...      7905
          la=0 lb=0:    860 shell pairs
          la=1 lb=0:   1073 shell pairs
          la=1 lb=1:    359 shell pairs
          la=2 lb=0:    344 shell pairs
          la=2 lb=1:    217 shell pairs
          la=2 lb=2:     42 shell pairs

Calculating one electron integrals          ... done (  0.0 sec)
Calculating RI/J V-Matrix + Cholesky decomp.... done (  0.0 sec)
Calculating Nuclear repulsion               ... done (  0.0 sec) ENN=    650.320770181426 Eh

Diagonalization of the overlap matrix:
Smallest eigenvalue                        ... 2.521e-03
Time for diagonalization                   ...    0.003 sec
Threshold for overlap eigenvalues          ... 1.000e-07
Number of eigenvalues below threshold      ... 0
Time for construction of square roots      ...    0.003 sec
Total time needed                          ...    0.006 sec

-------------------
DFT GRID GENERATION
-------------------

General Integration Accuracy     IntAcc      ... 4.388
Radial Grid Type                 RadialGrid  ... OptM3 with GC (2021)
Angular Grid (max. ang.)         AngularGrid ... 4 (Lebedev-302)
Angular grid pruning method      GridPruning ... 4 (adaptive)
Weight generation scheme         WeightScheme... mBecke (2022)
Basis function cutoff            BFCut       ... 1.0000e-11
Integration weight cutoff        WCut        ... 1.0000e-14
Partially contracted basis set               ... off
Rotationally invariant grid construction     ... off
Angular grids for H and He will be reduced by one unit

Total number of grid points                  ...   104368
Total number of batches                      ...     1644
Average number of points per batch           ...       63
Average number of grid points per atom       ...     4970

--------------------
COSX GRID GENERATION
--------------------

GRIDX 1
-------
General Integration Accuracy     IntAcc      ... 3.816
Radial Grid Type                 RadialGrid  ... OptM3 with GC (2021)
Angular Grid (max. ang.)         AngularGrid ... 1 (Lebedev-50)
Angular grid pruning method      GridPruning ... 4 (adaptive)
Weight generation scheme         WeightScheme... mBecke (2022)
Basis function cutoff            BFCut       ... 1.0000e-11
Integration weight cutoff        WCut        ... 1.0000e-14
Partially contracted basis set               ... on
Rotationally invariant grid construction     ... off
Angular grids for H and He will be reduced by one unit

Total number of grid points                  ...    13298
Total number of batches                      ...      116
Average number of points per batch           ...      114
Average number of grid points per atom       ...      633
UseSFitting                                  ... on

GRIDX 2
-------
General Integration Accuracy     IntAcc      ... 4.020
Radial Grid Type                 RadialGrid  ... OptM3 with GC (2021)
Angular Grid (max. ang.)         AngularGrid ... 2 (Lebedev-110)
Angular grid pruning method      GridPruning ... 4 (adaptive)
Weight generation scheme         WeightScheme... mBecke (2022)
Basis function cutoff            BFCut       ... 1.0000e-11
Integration weight cutoff        WCut        ... 1.0000e-14
Partially contracted basis set               ... on
Rotationally invariant grid construction     ... off
Angular grids for H and He will be reduced by one unit

Total number of grid points                  ...    29766
Total number of batches                      ...      246
Average number of points per batch           ...      121
Average number of grid points per atom       ...     1417
UseSFitting                                  ... on

GRIDX 3
-------
General Integration Accuracy     IntAcc      ... 4.338
Radial Grid Type                 RadialGrid  ... OptM3 with GC (2021)
Angular Grid (max. ang.)         AngularGrid ... 3 (Lebedev-194)
Angular grid pruning method      GridPruning ... 4 (adaptive)
Weight generation scheme         WeightScheme... mBecke (2022)
Basis function cutoff            BFCut       ... 1.0000e-11
Integration weight cutoff        WCut        ... 1.0000e-14
Partially contracted basis set               ... on
Rotationally invariant grid construction     ... off
Angular grids for H and He will be reduced by one unit

Total number of grid points                  ...    65557
Total number of batches                      ...      522
Average number of points per batch           ...      125
Average number of grid points per atom       ...     3122
UseSFitting                                  ... on
Initializing property integral containers    ... done (  0.0 sec)

SHARK setup successfully completed in   1.1 seconds

Maximum memory used throughout the entire STARTUP-calculation: 40.2 MB
-------------------------------------------------------------------------------
                                 ORCA GUESS
                   Start orbitals & Density for SCF / CASSCF
-------------------------------------------------------------------------------

------------
SCF SETTINGS
------------
Hamiltonian:
 Density Functional     Method          .... DFT(GTOs)
 Exchange Functional    Exchange        .... B88
   X-Alpha parameter    XAlpha          ....  0.666667
   Becke's b parameter  XBeta           ....  0.004200
 Correlation Functional Correlation     .... LYP
 LDA part of GGA corr.  LDAOpt          .... VWN-5
 Gradients option       PostSCFGGA      .... off
 Hybrid DFT is turned on
   Fraction HF Exchange ScalHFX         ....  0.200000
   Scaling of DF-GGA-X  ScalDFX         ....  0.720000
   Scaling of DF-GGA-C  ScalDFC         ....  0.810000
   Scaling of DF-LDA-C  ScalLDAC        ....  1.000000
   Perturbative correction              ....  0.000000
   NL short-range parameter             ....  4.800000
 RI-approximation to the Coulomb term is turned on
   Number of AuxJ basis functions       .... 725
   RIJ-COSX (HFX calculated with COS-X)).... on


General Settings:
 Integral files         IntName         .... li_ec2
 Hartree-Fock type      HFTyp           .... RHF
 Total Charge           Charge          ....    1
 Multiplicity           Mult            ....    1
 Number of Electrons    NEL             ....   94
 Basis Dimension        Dim             ....  217
 Nuclear Repulsion      ENuc            ....    650.3207701814 Eh

Convergence Acceleration:
 AO-DIIS                CNVDIIS         .... on
   Start iteration      DIISMaxIt       ....    12
   Startup error        DIISStart       ....  0.200000
   # of expansion vecs  DIISMaxEq       ....     5
   Bias factor          DIISBfac        ....   1.050
   Max. coefficient     DIISMaxC        ....  10.000
 MO-DIIS                CNVKDIIS        .... off
 Trust-Rad. Augm. Hess. CNVTRAH         .... auto
   Auto Start mean grad. ratio tolernc. ....  1.125000
   Auto Start start iteration           ....    50
   Auto Start num. interpolation iter.  ....    10
   Max. Number of Micro iterations      ....    24
   Max. Number of Macro iterations      .... Maxiter - #DIIS iter
   Number of Davidson start vectors     ....     2
   Converg. threshold    (grad. norm)   ....   1.000e-05
   Grad. Scal. Fac. for Micro threshold ....   0.100
   Minimum threshold for Micro iter.    ....   1.000e-02
   NR start threshold (gradient norm)   ....   1.000e-04
   Initial trust radius                 ....   0.400
   Minimum AH scaling param. (alpha)    ....   1.000
   Maximum AH scaling param. (alpha)    .... 1000.000
   Quad. conv. algorithm                .... NR
   White noise on init. David. guess    .... on
   Maximum white noise                  ....   0.010
   Pseudo random numbers                .... off
   Inactive MOs                         .... canonical
   Orbital update algorithm             .... Taylor
   Preconditioner                       .... Diag
   Full preconditioner red. dimension   ....   250
 SOSCF                  CNVSOSCF        .... on
   Start iteration      SOSCFMaxIt      ....   150
   Startup grad/error   SOSCFStart      ....  0.003300
   Hessian update       SOSCFHessUp     .... L-BFGS
 Level Shifting         CNVShift        .... on
   Level shift para.    LevelShift      ....    0.2500
   Turn off err/grad.   ShiftErr        ....    0.0010
 Zerner damping         CNVZerner       .... off
 Static damping         CNVDamp         .... on
   Fraction old density DampFac         ....    0.7000
   Max. Damping (<1)    DampMax         ....    0.9800
   Min. Damping (>=0)   DampMin         ....    0.0000
   Turn off err/grad.   DampErr         ....    0.1000

SCF Procedure:
 Maximum # iterations   MaxIter         ....   125
 SCF integral mode      SCFMode         .... Direct
   Integral package                     .... SHARK and LIBINT hybrid scheme
 Reset frequency        DirectResetFreq ....    20
 Integral Threshold     Thresh          ....  2.500e-11 Eh
 Primitive CutOff       TCut            ....  2.500e-12 Eh

Convergence Tolerance:
 Convergence Check Mode ConvCheckMode   .... Total+1el-Energy
 Convergence forced     ConvForced      .... 0
 Energy Change          TolE            ....  1.000e-08 Eh
 1-El. energy change                    ....  1.000e-05 Eh
 Orbital Gradient       TolG            ....  1.000e-05
 Orbital Rotation angle TolX            ....  1.000e-05
 DIIS Error             TolErr          ....  5.000e-07

------------------------------
INITIAL GUESS: MODEL POTENTIAL
------------------------------
Loading Hartree-Fock densities                     ... done
Calculating cut-offs                               ... done
Initializing the effective Hamiltonian             ... done
Setting up the integral package (SHARK)            ... done
Starting the Coulomb interaction                   ... done (   0.1 sec)
Making the grid                                    ... done (   0.1 sec)
Mapping shells                                     ... done
Starting the XC term evaluation                    ... done (   0.1 sec)
  promolecular density results
     # of electrons  =     94.997585775
     EX              =    -84.228064285
     EC              =     -3.306369272
     EX+EC           =    -87.534433557
Transforming the Hamiltonian                       ... done (   0.0 sec)
Diagonalizing the Hamiltonian                      ... done (   0.0 sec)
Back transforming the eigenvectors                 ... done (   0.0 sec)
Now organizing SCF variables                       ... done
                      ------------------
                      INITIAL GUESS DONE (   0.3 sec)
                      ------------------
             **** ENERGY FILE WAS UPDATED (li_ec2.en.tmp) ****
Finished Guess after   0.3 sec
Maximum memory used throughout the entire GUESS-calculation: 19.5 MB

-------------------------------------------------------------------------------------------
                                      ORCA LEAN-SCF
                              memory conserving SCF solver
-------------------------------------------------------------------------------------------

----------------------------------------D-I-I-S--------------------------------------------
Iteration    Energy (Eh)           Delta-E    RMSDP     MaxDP     DIISErr   Damp  Time(sec)
-------------------------------------------------------------------------------------------
               ***  Starting incremental Fock matrix formation  ***
    1    -690.8428906664710212     0.00e+00  3.68e-03  1.32e-01  3.04e-01  0.700   3.4
Warning: op=0 Small HOMO/LUMO gap (   0.064) - skipping pre-diagonalization
         Will do a full diagonalization
    2    -691.0454383649459942    -2.03e-01  1.79e-03  5.76e-02  1.07e-01  0.700   1.5
                               ***Turning on AO-DIIS***
    3    -691.1075161513981584    -6.21e-02  6.42e-04  1.44e-02  3.11e-02  0.700   1.4
    4    -691.1489330939025422    -4.14e-02  1.11e-03  2.56e-02  1.34e-02  0.000   1.4
    5    -691.2448060849419562    -9.59e-02  2.01e-04  5.04e-03  4.27e-03  0.000   1.4
    6    -691.2450816179414232    -2.76e-04  9.02e-05  3.08e-03  3.77e-03  0.000   1.3
                              *** Initializing SOSCF ***
---------------------------------------S-O-S-C-F--------------------------------------
Iteration    Energy (Eh)           Delta-E    RMSDP     MaxDP     MaxGrad    Time(sec)
--------------------------------------------------------------------------------------
    7    -691.2451128705690735    -3.13e-05  3.48e-05  9.48e-04  2.01e-03     1.3
               *** Restarting incremental Fock matrix formation ***
    8    -691.2450835680476757     2.93e-05  2.79e-05  1.19e-03  2.57e-04     3.0
    9    -691.2450812315237272     2.34e-06  1.75e-05  7.00e-04  5.39e-04     2.0
   10    -691.2450849998633657    -3.77e-06  4.87e-06  1.55e-04  3.92e-05     1.7
   11    -691.2450849346596442     6.52e-08  2.91e-06  1.22e-04  7.67e-05     1.7
   12    -691.2450850348818676    -1.00e-07  1.60e-06  4.48e-05  1.34e-05     1.5
   13    -691.2450850361681205    -1.29e-09  8.93e-07  2.42e-05  1.22e-05     1.4
                 **** Energy Check signals convergence ****

               *****************************************************
               *                     SUCCESS                       *
               *           SCF CONVERGED AFTER  13 CYCLES          *
               *****************************************************

Recomputing exchange energy using gridx3       ... done (    5.227 sec)
Old exchange energy                            :    -16.958260317 Eh
New exchange energy                            :    -16.958376026 Eh
Exchange energy change after final integration :     -0.000115709 Eh
Total energy after final integration           :   -691.245200745 Eh
             **** ENERGY FILE WAS UPDATED (li_ec2.en.tmp) ****

----------------
TOTAL SCF ENERGY
----------------

Total Energy       :       -691.24520074490829 Eh          -18809.73818 eV

Components:
Nuclear Repulsion  :        650.32077018142650 Eh           17696.12781 eV
Electronic Energy  :      -1341.56585521759462 Eh          -36505.86284 eV
One Electron Energy:      -2222.83768558139354 Eh          -60486.48850 eV
Two Electron Energy:        881.27183036379893 Eh           23980.62566 eV

Virial components:
Potential Energy   :      -1377.00042544120288 Eh          -37470.08652 eV
Kinetic Energy     :        685.75522469629459 Eh           18660.34834 eV
Virial Ratio       :          2.00800573710692

DFT components:
N(Alpha)           :       46.999924508749 electrons
N(Beta)            :       46.999924508749 electrons
N(Total)           :       93.999849017497 electrons
E(X)               :      -67.526689671912 Eh       
E(C)               :       -3.866488585308 Eh       
E(XC)              :      -71.393178257221 Eh       

---------------
SCF CONVERGENCE
---------------

  Last Energy change         ...    1.2863e-09  Tolerance :   1.0000e-08
  Last MAX-Density change    ...    2.4164e-05  Tolerance :   1.0000e-07
  Last RMS-Density change    ...    8.9310e-07  Tolerance :   5.0000e-09
  Last DIIS Error            ...    2.0122e-03  Tolerance :   5.0000e-07
  Last Orbital Gradient      ...    1.2175e-05  Tolerance :   1.0000e-05
  Last Orbital Rotation      ...    1.0931e-05  Tolerance :   1.0000e-05


----------------
ORBITAL ENERGIES
----------------

  NO   OCC          E(Eh)            E(eV) 
   0   2.0000     -19.384511      -527.4794 
   1   2.0000     -19.380517      -527.3707 
   2   2.0000     -19.321614      -525.7679 
   3   2.0000     -19.277445      -524.5659 
   4   2.0000     -19.277047      -524.5551 
   5   2.0000     -19.198501      -522.4178 
   6   2.0000     -10.568632      -287.5871 
   7   2.0000     -10.444516      -284.2097 
   8   2.0000     -10.411314      -283.3062 
   9   2.0000     -10.410857      -283.2938 
  10   2.0000     -10.339993      -281.3655 
  11   2.0000     -10.339773      -281.3595 
  12   2.0000      -2.210195       -60.1425 
  13   2.0000      -1.332563       -36.2609 
  14   2.0000      -1.255307       -34.1586 
  15   2.0000      -1.234430       -33.5905 
  16   2.0000      -1.154202       -31.4074 
  17   2.0000      -1.146320       -31.1930 
  18   2.0000      -1.098925       -29.9033 
  19   2.0000      -0.927603       -25.2414 
  20   2.0000      -0.853478       -23.2243 
  21   2.0000      -0.833944       -22.6928 
  22   2.0000      -0.790595       -21.5132 
  23   2.0000      -0.768050       -20.8997 
  24   2.0000      -0.717176       -19.5154 
  25   2.0000      -0.702140       -19.1062 
  26   2.0000      -0.695717       -18.9314 
  27   2.0000      -0.649605       -17.6766 
  28   2.0000      -0.631276       -17.1779 
  29   2.0000      -0.620970       -16.8975 
  30   2.0000      -0.605474       -16.4758 
  31   2.0000      -0.603992       -16.4355 
  32   2.0000      -0.583272       -15.8716 
  33   2.0000      -0.582153       -15.8412 
  34   2.0000      -0.579133       -15.7590 
  35   2.0000      -0.531413       -14.4605 
  36   2.0000      -0.529607       -14.4113 
  37   2.0000      -0.518478       -14.1085 
  38   2.0000      -0.517369       -14.0783 
  39   2.0000      -0.493630       -13.4324 
  40   2.0000      -0.481864       -13.1122 
  41   2.0000      -0.480231       -13.0677 
  42   2.0000      -0.466897       -12.7049 
  43   2.0000      -0.451279       -12.2799 
  44   2.0000      -0.386704       -10.5227 
  45   2.0000      -0.386400       -10.5145 
  46   2.0000      -0.374837       -10.1998 
  47   0.0000      -0.240284        -6.5385 
  48   0.0000      -0.171305        -4.6615 
  49   0.0000      -0.099294        -2.7019 
  50   0.0000      -0.095632        -2.6023 
  51   0.0000      -0.085147        -2.3170 
  52   0.0000      -0.060003        -1.6328 
  53   0.0000      -0.051669        -1.4060 
  54   0.0000      -0.049360        -1.3432 
  55   0.0000      -0.037216        -1.0127 
  56   0.0000      -0.027325        -0.7435 
  57   0.0000      -0.019219        -0.5230 
*Only the first 10 virtual orbitals were printed.

                    ********************************
                    * MULLIKEN POPULATION ANALYSIS *
                    ********************************

-----------------------
MULLIKEN ATOMIC CHARGES
-----------------------
   0 C :    0.130262
   1 C :    0.135303
   2 O :   -0.220259
   3 H :    0.082093
   4 H :    0.087677
   5 O :   -0.213908
   6 H :    0.067092
   7 H :    0.095333
   8 C :    0.406021
   9 O :   -0.399799
  10 Li:    0.818501
  11 C :    0.287295
  12 O :   -0.248043
  13 O :   -0.249426
  14 C :    0.145362
  15 C :    0.145235
  16 H :    0.047165
  17 H :    0.049135
  18 H :    0.049574
  19 H :    0.047390
  20 O :   -0.262004
Sum of atomic charges:    1.0000000

--------------------------------
MULLIKEN REDUCED ORBITAL CHARGES
--------------------------------
  0 C s       :     3.037692  s :     3.037692
      pz      :     1.038772  p :     2.768138
      px      :     0.953993
      py      :     0.775374
      dz2     :     0.011978  d :     0.063908
      dxz     :     0.006545
      dyz     :     0.014748
      dx2y2   :     0.018313
      dxy     :     0.012324

  1 C s       :     3.036304  s :     3.036304
      pz      :     1.022438  p :     2.765693
      px      :     0.985668
      py      :     0.757587
      dz2     :     0.012103  d :     0.062699
      dxz     :     0.006682
      dyz     :     0.014155
      dx2y2   :     0.018597
      dxy     :     0.011164

  2 O s       :     3.778049  s :     3.778049
      pz      :     1.665241  p :     4.422216
      px      :     1.504501
      py      :     1.252473
      dz2     :     0.002650  d :     0.019994
      dxz     :     0.003923
      dyz     :     0.003325
      dx2y2   :     0.003813
      dxy     :     0.006283

  3 H s       :     0.897039  s :     0.897039
      pz      :     0.013560  p :     0.020868
      px      :     0.004764
      py      :     0.002544

  4 H s       :     0.890579  s :     0.890579
      pz      :     0.007733  p :     0.021744
      px      :     0.004962
      py      :     0.009049

  5 O s       :     3.781086  s :     3.781086
      pz      :     1.657797  p :     4.412852
      px      :     1.463279
      py      :     1.291777
      dz2     :     0.002602  d :     0.019970
      dxz     :     0.003591
      dyz     :     0.003401
      dx2y2   :     0.005322
      dxy     :     0.005054

  6 H s       :     0.912042  s :     0.912042
      pz      :     0.013485  p :     0.020866
      px      :     0.005029
      py      :     0.002351

  7 H s       :     0.882804  s :     0.882804
      pz      :     0.007295  p :     0.021863
      px      :     0.006054
      py      :     0.008514

  8 C s       :     3.043295  s :     3.043295
      pz      :     0.795350  p :     2.412457
      px      :     0.808684
      py      :     0.808423
      dz2     :     0.015563  d :     0.138226
      dxz     :     0.020286
      dyz     :     0.024189
      dx2y2   :     0.034078
      dxy     :     0.044109

  9 O s       :     3.865735  s :     3.865735
      pz      :     1.436893  p :     4.522680
      px      :     1.749465
      py      :     1.336322
      dz2     :     0.002075  d :     0.011384
      dxz     :     0.001244
      dyz     :     0.003773
      dx2y2   :     0.002535
      dxy     :     0.001758

 10 Lis       :     2.050804  s :     2.050804
      pz      :     0.046346  p :     0.130696
      px      :     0.038382
      py      :     0.045967

 11 C s       :     2.982445  s :     2.982445
      pz      :     0.851684  p :     2.556917
      px      :     0.833579
      py      :     0.871654
      dz2     :     0.010400  d :     0.173343
      dxz     :     0.020293
      dyz     :     0.032689
      dx2y2   :     0.040448
      dxy     :     0.069513

 12 O s       :     3.736220  s :     3.736220
      pz      :     1.749343  p :     4.492057
      px      :     1.490131
      py      :     1.252583
      dz2     :     0.002551  d :     0.019766
      dxz     :     0.003180
      dyz     :     0.002319
      dx2y2   :     0.005647
      dxy     :     0.006070

 13 O s       :     3.735970  s :     3.735970
      pz      :     1.755500  p :     4.493714
      px      :     1.507391
      py      :     1.230823
      dz2     :     0.002501  d :     0.019742
      dxz     :     0.003076
      dyz     :     0.002494
      dx2y2   :     0.004887
      dxy     :     0.006784

 14 C s       :     3.007719  s :     3.007719
      pz      :     1.056871  p :     2.783417
      px      :     0.987293
      py      :     0.739253
      dz2     :     0.010303  d :     0.063502
      dxz     :     0.006211
      dyz     :     0.015425
      dx2y2   :     0.019664
      dxy     :     0.011899

 15 C s       :     3.007604  s :     3.007604
      pz      :     1.052549  p :     2.783675
      px      :     0.974835
      py      :     0.756291
      dz2     :     0.009730  d :     0.063487
      dxz     :     0.006376
      dyz     :     0.016184
      dx2y2   :     0.019048
      dxy     :     0.012149

 16 H s       :     0.932031  s :     0.932031
      pz      :     0.011115  p :     0.020804
      px      :     0.005832
      py      :     0.003856

 17 H s       :     0.930049  s :     0.930049
      pz      :     0.011150  p :     0.020815
      px      :     0.004425
      py      :     0.005240

 18 H s       :     0.929604  s :     0.929604
      pz      :     0.009804  p :     0.020822
      px      :     0.006173
      py      :     0.004845

 19 H s       :     0.931808  s :     0.931808
      pz      :     0.012644  p :     0.020802
      px      :     0.004665
      py      :     0.003493

 20 O s       :     3.723555  s :     3.723555
      pz      :     1.468020  p :     4.520966
      px      :     1.752629
      py      :     1.300317
      dz2     :     0.002020  d :     0.017484
      dxz     :     0.000067
      dyz     :     0.005513
      dx2y2   :     0.006175
      dxy     :     0.003709



                     *******************************
                     * LOEWDIN POPULATION ANALYSIS *
                     *******************************

----------------------
LOEWDIN ATOMIC CHARGES
----------------------
   0 C :    0.075184
   1 C :    0.071942
   2 O :   -0.029530
   3 H :    0.046064
   4 H :    0.055393
   5 O :   -0.021349
   6 H :    0.038160
   7 H :    0.059082
   8 C :    0.245560
   9 O :   -0.226828
  10 Li:    0.673225
  11 C :    0.091360
  12 O :   -0.052360
  13 O :   -0.053494
  14 C :    0.064028
  15 C :    0.063816
  16 H :    0.030045
  17 H :    0.030979
  18 H :    0.031217
  19 H :    0.030135
  20 O :   -0.222627

-------------------------------
LOEWDIN REDUCED ORBITAL CHARGES
-------------------------------
  0 C s       :     2.852736  s :     2.852736
      pz      :     1.065162  p :     2.927946
      px      :     1.012034
      py      :     0.850750
      dz2     :     0.027581  d :     0.144134
      dxz     :     0.013635
      dyz     :     0.033235
      dx2y2   :     0.043321
      dxy     :     0.026362

  1 C s       :     2.852859  s :     2.852859
      pz      :     1.056270  p :     2.932883
      px      :     1.035856
      py      :     0.840756
      dz2     :     0.028518  d :     0.142316
      dxz     :     0.014501
      dyz     :     0.031394
      dx2y2   :     0.044239
      dxy     :     0.023663

  2 O s       :     3.476418  s :     3.476418
      pz      :     1.663324  p :     4.517682
      px      :     1.550278
      py      :     1.304080
      dz2     :     0.003823  d :     0.035430
      dxz     :     0.005295
      dyz     :     0.006478
      dx2y2   :     0.006846
      dxy     :     0.012988

  3 H s       :     0.889216  s :     0.889216
      pz      :     0.040929  p :     0.064720
      px      :     0.014602
      py      :     0.009188

  4 H s       :     0.879921  s :     0.879921
      pz      :     0.022805  p :     0.064686
      px      :     0.014621
      py      :     0.027260

  5 O s       :     3.481204  s :     3.481204
      pz      :     1.656322  p :     4.504769
      px      :     1.510751
      py      :     1.337696
      dz2     :     0.004055  d :     0.035375
      dxz     :     0.004683
      dyz     :     0.006085
      dx2y2   :     0.009949
      dxy     :     0.010604

  6 H s       :     0.897329  s :     0.897329
      pz      :     0.040735  p :     0.064511
      px      :     0.015446
      py      :     0.008330

  7 H s       :     0.875924  s :     0.875924
      pz      :     0.021259  p :     0.064995
      px      :     0.017847
      py      :     0.025888

  8 C s       :     2.860207  s :     2.860207
      pz      :     0.830002  p :     2.617446
      px      :     0.885778
      py      :     0.901666
      dz2     :     0.029482  d :     0.276787
      dxz     :     0.040193
      dyz     :     0.048764
      dx2y2   :     0.066026
      dxy     :     0.092321

  9 O s       :     3.587794  s :     3.587794
      pz      :     1.460480  p :     4.619454
      px      :     1.748614
      py      :     1.410359
      dz2     :     0.002451  d :     0.019580
      dxz     :     0.001514
      dyz     :     0.007413
      dx2y2   :     0.005205
      dxy     :     0.002997

 10 Lis       :     2.077630  s :     2.077630
      pz      :     0.093751  p :     0.249145
      px      :     0.055012
      py      :     0.100382

 11 C s       :     2.805662  s :     2.805662
      pz      :     0.848964  p :     2.735114
      px      :     0.896786
      py      :     0.989364
      dz2     :     0.022145  d :     0.367864
      dxz     :     0.039656
      dyz     :     0.061875
      dx2y2   :     0.088843
      dxy     :     0.155346

 12 O s       :     3.439977  s :     3.439977
      pz      :     1.723037  p :     4.575416
      px      :     1.539892
      py      :     1.312487
      dz2     :     0.004586  d :     0.036967
      dxz     :     0.003801
      dyz     :     0.004329
      dx2y2   :     0.011172
      dxy     :     0.013078

 13 O s       :     3.439881  s :     3.439881
      pz      :     1.728368  p :     4.576669
      px      :     1.554510
      py      :     1.293790
      dz2     :     0.004592  d :     0.036944
      dxz     :     0.003388
      dyz     :     0.004633
      dx2y2   :     0.009494
      dxy     :     0.014837

 14 C s       :     2.850984  s :     2.850984
      pz      :     1.087111  p :     2.939997
      px      :     1.027422
      py      :     0.825465
      dz2     :     0.023163  d :     0.144991
      dxz     :     0.013428
      dyz     :     0.037092
      dx2y2   :     0.046266
      dxy     :     0.025042

 15 C s       :     2.851027  s :     2.851027
      pz      :     1.084234  p :     2.940158
      px      :     1.019164
      py      :     0.836760
      dz2     :     0.021177  d :     0.144999
      dxz     :     0.013684
      dyz     :     0.039823
      dx2y2   :     0.044925
      dxy     :     0.025390

 16 H s       :     0.906751  s :     0.906751
      pz      :     0.032785  p :     0.063204
      px      :     0.017535
      py      :     0.012884

 17 H s       :     0.905754  s :     0.905754
      pz      :     0.032818  p :     0.063267
      px      :     0.013363
      py      :     0.017086

 18 H s       :     0.905511  s :     0.905511
      pz      :     0.028795  p :     0.063272
      px      :     0.018484
      py      :     0.015993

 19 H s       :     0.906657  s :     0.906657
      pz      :     0.037321  p :     0.063208
      px      :     0.013986
      py      :     0.011900

 20 O s       :     3.546938  s :     3.546938
      pz      :     1.462134  p :     4.646106
      px      :     1.748880
      py      :     1.435092
      dz2     :     0.004325  d :     0.029584
      dxz     :     0.000074
      dyz     :     0.006999
      dx2y2   :     0.013275
      dxy     :     0.004909



                      *****************************
                      * MAYER POPULATION ANALYSIS *
                      *****************************

  NA   - Mulliken gross atomic population
  ZA   - Total nuclear charge
  QA   - Mulliken gross atomic charge
  VA   - Mayer's total valence
  BVA  - Mayer's bonded valence
  FA   - Mayer's free valence

  ATOM       NA         ZA         QA         VA         BVA        FA
  0 C      5.8697     6.0000     0.1303     3.9630     3.9630    -0.0000
  1 C      5.8647     6.0000     0.1353     3.9663     3.9663    -0.0000
  2 O      8.2203     8.0000    -0.2203     2.2659     2.2659     0.0000
  3 H      0.9179     1.0000     0.0821     0.9745     0.9745    -0.0000
  4 H      0.9123     1.0000     0.0877     0.9809     0.9809    -0.0000
  5 O      8.2139     8.0000    -0.2139     2.2813     2.2813    -0.0000
  6 H      0.9329     1.0000     0.0671     0.9781     0.9781     0.0000
  7 H      0.9047     1.0000     0.0953     0.9819     0.9819    -0.0000
  8 C      5.5940     6.0000     0.4060     4.1530     4.1530    -0.0000
  9 O      8.3998     8.0000    -0.3998     2.0794     2.0794    -0.0000
 10 Li     2.1815     3.0000     0.8185     0.3548     0.3548    -0.0000
 11 C      5.7127     6.0000     0.2873     4.4218     4.4218    -0.0000
 12 O      8.2480     8.0000    -0.2480     2.2334     2.2334    -0.0000
 13 O      8.2494     8.0000    -0.2494     2.2320     2.2320    -0.0000
 14 C      5.8546     6.0000     0.1454     4.0010     4.0010    -0.0000
 15 C      5.8548     6.0000     0.1452     4.0006     4.0006    -0.0000
 16 H      0.9528     1.0000     0.0472     0.9766     0.9766    -0.0000
 17 H      0.9509     1.0000     0.0491     0.9766     0.9766    -0.0000
 18 H      0.9504     1.0000     0.0496     0.9767     0.9767    -0.0000
 19 H      0.9526     1.0000     0.0474     0.9766     0.9766    -0.0000
 20 O      8.2620     8.0000    -0.2620     2.2539     2.2539    -0.0000

  Mayer bond orders larger than 0.100000
B(  0-C ,  1-C ) :   1.1094 B(  0-C ,  2-O ) :   0.9074 B(  0-C ,  3-H ) :   0.9334 
B(  0-C ,  4-H ) :   0.9441 B(  1-C ,  5-O ) :   0.9087 B(  1-C ,  6-H ) :   0.9429 
B(  1-C ,  7-H ) :   0.9443 B(  2-O ,  8-C ) :   1.2053 B(  5-O ,  8-C ) :   1.2091 
B(  8-C ,  9-O ) :   1.6417 B(  9-O , 10-Li) :   0.2839 B( 11-C , 12-O ) :   1.1482 
B( 11-C , 13-O ) :   1.1474 B( 11-C , 20-O ) :   2.0871 B( 12-O , 14-C ) :   0.9815 
B( 13-O , 15-C ) :   0.9812 B( 14-C , 15-C ) :   1.0794 B( 14-C , 18-H ) :   0.9516 
B( 14-C , 19-H ) :   0.9517 B( 15-C , 16-H ) :   0.9517 B( 15-C , 17-H ) :   0.9516 


-------
TIMINGS
-------

Total SCF time: 0 days 0 hours 0 min 28 sec 

Total time                  ....      28.144 sec
Sum of individual times     ....      28.115 sec  ( 99.9%)

SCF preparation             ....       0.033 sec  (  0.1%)
Fock matrix formation       ....      27.947 sec  ( 99.3%)
  Startup                   ....       0.002 sec  (  0.0% of F)
  Split-RI-J                ....       2.075 sec  (  7.4% of F)
  Chain of spheres X        ....      21.723 sec  ( 77.7% of F)
  XC integration            ....       4.111 sec  ( 14.7% of F)
    XC Preparation          ....       0.000 sec  (  0.0% of XC)
    Basis function eval.    ....       1.789 sec  ( 43.5% of XC)
    Density eval.           ....       0.745 sec  ( 18.1% of XC)
    XC-Functional eval.     ....       0.231 sec  (  5.6% of XC)
    XC-Potential eval.      ....       1.121 sec  ( 27.3% of XC)
Diagonalization             ....       0.000 sec  (  0.0%)
Density matrix formation    ....       0.019 sec  (  0.1%)
Total Energy calculation    ....       0.016 sec  (  0.1%)
Population analysis         ....       0.006 sec  (  0.0%)
Orbital Transformation      ....       0.014 sec  (  0.0%)
Orbital Orthonormalization  ....       0.000 sec  (  0.0%)
DIIS solution               ....       0.053 sec  (  0.2%)
SOSCF solution              ....       0.026 sec  (  0.1%)
Finished LeanSCF after  28.2 sec

Maximum memory used throughout the entire LEANSCF-calculation: 20.7 MB


-------------------------------------------------------------------------------
                          DFT DISPERSION CORRECTION                            
                                                                               
                              DFTD3 V3.1  Rev 1                                
                          USING Becke-Johnson damping                          
-------------------------------------------------------------------------------
The B3LYP functional is recognized
Active option DFTDOPT                   ...         4   

molecular C6(AA) [au] = 4562.478164 


            DFT-D V3
 parameters
 s6 scaling factor         :     1.0000 
 a1 scaling factor         :     0.3981 
 s8 scaling factor         :     1.9889 
 a2 scaling factor         :     4.4211 
 ad hoc parameters k1-k3   :    16.0000     1.3333    -4.0000 

 Edisp/kcal,au: -15.906500975523  -0.025348620118 
 E6   /kcal   :  -7.507033946 
 E8   /kcal   :  -8.399467030 
 % E8         :  52.805246377 

-------------------------   ----------------
Dispersion correction           -0.025348620
-------------------------   ----------------


-------------------------   --------------------
FINAL SINGLE POINT ENERGY      -691.270549365027
-------------------------   --------------------

------------------------------------------------------------------------------
                         ORCA SCF GRADIENT CALCULATION
------------------------------------------------------------------------------

Nuc. rep. gradient        (SHARK) ... done (  0.0 sec)
HCore & Overlap gradient  (SHARK) ... done (  0.1 sec)
Split-RIJ-J gradient      (SHARK) ... done (  0.7 sec)
COSX-gradient                     ... done ( 12.5 sec)
XC gradient                       ... done (  2.7 sec)
Dispersion correction             ... done (  0.0 sec)

-------------------
DISPERSION GRADIENT
-------------------

   1   C   :   -0.000096069    0.000207086    0.000009122
   2   C   :    0.000132330    0.000196381    0.000016031
   3   O   :   -0.000224212    0.000070782    0.000047874
   4   H   :   -0.000148187    0.000153055   -0.000094319
   5   H   :   -0.000143872    0.000177829    0.000069089
   6   O   :    0.000224026    0.000040153   -0.000078537
   7   H   :    0.000166280    0.000117769    0.000107300
   8   H   :    0.000170910    0.000159253   -0.000055040
   9   C   :   -0.000017415   -0.000183912   -0.000010202
  10   O   :   -0.000054303   -0.000391371   -0.000098146
  11   Li  :    0.000006651   -0.000341957    0.000089194
  12   C   :   -0.000021226   -0.000650397    0.000053864
  13   O   :   -0.000161786    0.000103689    0.000009504
  14   O   :    0.000167010    0.000089870   -0.000027992
  15   C   :    0.000055791    0.000283862   -0.000031004
  16   C   :   -0.000039051    0.000287492   -0.000020174
  17   H   :    0.000172218   -0.000153971    0.000087553
  18   H   :    0.000150333   -0.000169566   -0.000098192
  19   H   :   -0.000181441   -0.000156493   -0.000060030
  20   H   :   -0.000159568   -0.000140528    0.000125677
  21   O   :    0.000001581    0.000300973   -0.000041571

Difference to translation invariance:
           :    0.0000000000   -0.0000000000    0.0000000000

Difference to rotation invariance:
           :    0.0000000000    0.0000000000    0.0000000000

Norm of the Dispersion gradient    ...    0.0013329414
RMS gradient                       ...    0.0001679348
MAX gradient                       ...    0.0006503967

------------------
CARTESIAN GRADIENT
------------------

   1   C   :    0.000315135   -0.057687879    0.009255365
   2   C   :   -0.012807917   -0.054287015   -0.021200165
   3   O   :   -0.050350522    0.055813330    0.008979674
   4   H   :    0.000550470   -0.000570420   -0.007166449
   5   H   :    0.001455847    0.008850398    0.003588299
   6   O   :    0.058464507    0.046785039   -0.018328791
   7   H   :   -0.001471377   -0.003664878    0.006877473
   8   H   :   -0.001013149    0.010206836   -0.002913903
   9   C   :    0.041608737    0.086985052    0.101298972
  10   O   :   -0.040798957   -0.096071186   -0.090932728
  11   Li  :    0.004585824    0.008224785    0.011127887
  12   C   :   -0.001793010   -0.073988610    0.006801522
  13   O   :   -0.003869294   -0.023835327    0.002508467
  14   O   :    0.002071326   -0.024012728    0.001590334
  15   C   :    0.004570086    0.045671153   -0.004442505
  16   C   :   -0.001786465    0.046067018   -0.003434134
  17   H   :    0.000074950    0.000074887    0.007481893
  18   H   :   -0.001622570   -0.001130010   -0.007253464
  19   H   :   -0.000148076   -0.001315132   -0.007411051
  20   H   :    0.001614121    0.000105313    0.007311575
  21   O   :    0.000350336    0.027779375   -0.003738272

Difference to translation invariance:
           :   -0.0000000000    0.0000000000   -0.0000000001

Difference to rotation invariance:
           :   -0.0000296045    0.0001267434    0.0002204173

Norm of the Cartesian gradient     ...    0.2643405044
RMS gradient                       ...    0.0333037731
MAX gradient                       ...    0.1012989719

-------
TIMINGS
-------

Total SCF gradient time     ....       16.040 sec

Densities                   ....       0.000 sec  (  0.0%)
One electron gradient       ....       0.082 sec  (  0.5%)
RI-J Coulomb gradient       ....       0.725 sec  (  4.5%)
COSX gradient               ....      12.513 sec  ( 78.0%)
XC gradient                 ....       2.692 sec  ( 16.8%)

Maximum memory used throughout the entire SCFGRAD-calculation: 31.5 MB
------------------------------------------------------------------------------
                         ORCA GEOMETRY RELAXATION STEP
------------------------------------------------------------------------------

Reading the OPT-File                    .... done
Getting information on internals        .... done
Copying old internal coords+grads       .... done
Making the new internal coordinates     .... (2022 redundants) done
Validating the new internal coordinates .... (2022 redundants) done
Calculating the B-matrix                .... done
Calculating the G,G- and P matrices     .... done
Transforming gradient to internals      .... done
Projecting the internal gradient        .... done
Number of atoms                         ....  21
Number of internal coordinates          .... 108
Current Energy                          ....  -691.270549365 Eh
Current gradient norm                   ....     0.264340504 Eh/bohr
Maximum allowed component of the step   ....  0.300
Current trust radius                    ....  0.300
Evaluating the initial hessian          ....  (Almloef) done
Projecting the Hessian                  .... done
Forming the augmented Hessian           .... done
Diagonalizing the augmented Hessian     .... done
Last element of RFO vector              ....  0.922274379
Lowest eigenvalues of augmented Hessian:
 -0.066305784  0.000179310  0.001500596  0.003478141  0.018562183
Length of the computed step             ....  0.419111565
Warning: the length of the step is outside the trust region - taking restricted step instead
The input lambda is                     ....    -0.000942
   iter:   5  x=   -0.015628  g=   79.702502 f(x)=     0.674281
   iter:  10  x=   -0.171267  g=    0.437359 f(x)=     0.005698
The output lambda is                    ....    -0.172144 (14 iterations)
The final length of the internal step   ....  0.300000000
Converting the step to Cartesian space:
 Initial RMS(Int)=    0.0288675135
Transforming coordinates:
 Iter   0:  RMS(Cart)=    0.0383129238 RMS(Int)=    0.6052399117
 Iter   5:  RMS(Cart)=    0.0000000149 RMS(Int)=    0.0000000054
done
Storing new coordinates                 .... done

                                .--------------------.
          ----------------------|Geometry convergence|-------------------------
          Item                value                   Tolerance       Converged
          ---------------------------------------------------------------------
          RMS gradient        0.0181726702            0.0001000000      NO
          MAX gradient        0.1236694974            0.0003000000      NO
          RMS step            0.0288675135            0.0020000000      NO
          MAX step            0.1583421863            0.0040000000      NO
          ........................................................
          Max(Bonds)      0.0838      Max(Angles)    3.45
          Max(Dihed)        4.34      Max(Improp)    0.00
          ---------------------------------------------------------------------

The optimization has not yet converged - more geometry cycles are needed


    ---------------------------------------------------------------------------
                         Redundant Internal Coordinates
                            (Angstroem and degrees)

        Definition                    Value    dE/dq     Step     New-Value
    ----------------------------------------------------------------------------
     1. B(C   1,C   0)                1.5081  0.001195  0.0019    1.5100   
     2. B(O   2,C   0)                1.3920 -0.043223  0.0332    1.4251   
     3. B(H   3,C   0)                1.1153  0.006415 -0.0068    1.1085   
     4. B(H   4,C   0)                1.1106  0.008139 -0.0085    1.1020   
     5. B(O   5,C   1)                1.3948 -0.041341  0.0326    1.4273   
     6. B(H   6,C   1)                1.1141  0.005733 -0.0060    1.1081   
     7. B(H   7,C   1)                1.1107  0.008401 -0.0088    1.1019   
     8. B(C   8,O   5)                1.3774  0.041441 -0.0318    1.3456   
     9. B(C   8,O   2)                1.3764  0.038109 -0.0300    1.3464   
    10. B(O   9,C   8)                1.3670  0.123669 -0.0838    1.2832   
    11. B(Li 10,O   9)                1.8585  0.005608 -0.0045    1.8539   
    12. B(C  11,Li 10)                5.3477  0.012203 -0.0130    5.3347   
    13. B(O  12,C  11)                1.3363 -0.007390  0.0047    1.3410   
    14. B(O  13,C  11)                1.3363 -0.007766  0.0049    1.3412   
    15. B(C  14,O  12)                1.3745 -0.043814  0.0303    1.4048   
    16. B(C  15,O  13)                1.3745 -0.043901  0.0303    1.4048   
    17. B(C  15,C  14)                1.5415 -0.006318  0.0061    1.5476   
    18. B(H  16,C  15)                1.1112  0.006065 -0.0064    1.1049   
    19. B(H  17,C  15)                1.1112  0.006097 -0.0064    1.1048   
    20. B(H  18,C  14)                1.1112  0.006145 -0.0064    1.1048   
    21. B(H  19,C  14)                1.1112  0.006047 -0.0063    1.1049   
    22. B(O  20,Li 10)                4.1382 -0.007574 -0.0012    4.1370   
[...]
 Iter  65:  RMS(Cart)=    0.0209042024 RMS(Int)=    0.0000001650
 Iter  70:  RMS(Cart)=    0.0208996221 RMS(Int)=    0.0000001649
 Iter  75:  RMS(Cart)=    0.0208950428 RMS(Int)=    0.0000001649
 Iter  80:  RMS(Cart)=    0.0208904645 RMS(Int)=    0.0000001648
 Iter  85:  RMS(Cart)=    0.0208858872 RMS(Int)=    0.0000001648
 Iter  90:  RMS(Cart)=    0.0208813110 RMS(Int)=    0.0000001648
 Iter  95:  RMS(Cart)=    0.0208767356 RMS(Int)=    0.0000001647
 RMS(Cart) too big - taking linear step, building new B-matrix and trying again
 Initial RMS(Int)=    0.0303045763
Transforming coordinates:
 Iter   0:  RMS(Cart)= 1063.2490660019 RMS(Int)=   11.9715875816
 Iter   5:  RMS(Cart)=    0.6230723220 RMS(Int)=    0.0105202382
 Iter  10:  RMS(Cart)=    0.0344361908 RMS(Int)=    0.0003241041
 Iter  15:  RMS(Cart)=    0.0213800136 RMS(Int)=    0.0000099868
 Iter  20:  RMS(Cart)=    0.0210780686 RMS(Int)=    0.0000003546
 Iter  25:  RMS(Cart)=    0.0210645064 RMS(Int)=    0.0000001669
 Iter  30:  RMS(Cart)=    0.0210595964 RMS(Int)=    0.0000001662
 Iter  35:  RMS(Cart)=    0.0210549495 RMS(Int)=    0.0000001661
 Iter  40:  RMS(Cart)=    0.0210503116 RMS(Int)=    0.0000001661
 Iter  45:  RMS(Cart)=    0.0210456750 RMS(Int)=    0.0000001661
 Iter  50:  RMS(Cart)=    0.0210410394 RMS(Int)=    0.0000001660
 Iter  55:  RMS(Cart)=    0.0210364048 RMS(Int)=    0.0000001660
 Iter  60:  RMS(Cart)=    0.0210317712 RMS(Int)=    0.0000001659
 Iter  65:  RMS(Cart)=    0.0210271386 RMS(Int)=    0.0000001659
 Iter  70:  RMS(Cart)=    0.0210225071 RMS(Int)=    0.0000001659
 Iter  75:  RMS(Cart)=    0.0210178765 RMS(Int)=    0.0000001658
 Iter  80:  RMS(Cart)=    0.0210132470 RMS(Int)=    0.0000001658
 Iter  85:  RMS(Cart)=    0.0210086185 RMS(Int)=    0.0000001658
 Iter  90:  RMS(Cart)=    0.0210039910 RMS(Int)=    0.0000001657
 Iter  95:  RMS(Cart)=    0.0209993645 RMS(Int)=    0.0000001657
 RMS(Cart) too big - taking linear step, building new B-matrix and trying again
 Initial RMS(Int)=    0.0303045763
Transforming coordinates:
 Iter   0:  RMS(Cart)= 1119.1498022963 RMS(Int)=   13.1479774428
 Iter   5:  RMS(Cart)=    1.0632035494 RMS(Int)=    0.0255928871
 Iter  10:  RMS(Cart)=    0.0476868713 RMS(Int)=    0.0007806205
 Iter  15:  RMS(Cart)=    0.0217185690 RMS(Int)=    0.0000236623
 Iter  20:  RMS(Cart)=    0.0211395496 RMS(Int)=    0.0000007409
 Iter  25:  RMS(Cart)=    0.0211181165 RMS(Int)=    0.0000001694
 Iter  30:  RMS(Cart)=    0.0211129411 RMS(Int)=    0.0000001671
 Iter  35:  RMS(Cart)=    0.0211082506 RMS(Int)=    0.0000001670
 Iter  40:  RMS(Cart)=    0.0211035757 RMS(Int)=    0.0000001670
 Iter  45:  RMS(Cart)=    0.0210989021 RMS(Int)=    0.0000001670
 Iter  50:  RMS(Cart)=    0.0210942297 RMS(Int)=    0.0000001669
 Iter  55:  RMS(Cart)=    0.0210895582 RMS(Int)=    0.0000001669
 Iter  60:  RMS(Cart)=    0.0210848878 RMS(Int)=    0.0000001669
 Iter  65:  RMS(Cart)=    0.0210802184 RMS(Int)=    0.0000001668
 Iter  70:  RMS(Cart)=    0.0210755501 RMS(Int)=    0.0000001668
 Iter  75:  RMS(Cart)=    0.0210708827 RMS(Int)=    0.0000001668
 Iter  80:  RMS(Cart)=    0.0210662164 RMS(Int)=    0.0000001667
 Iter  85:  RMS(Cart)=    0.0210615512 RMS(Int)=    0.0000001667
 Iter  90:  RMS(Cart)=    0.0210568869 RMS(Int)=    0.0000001666
 Iter  95:  RMS(Cart)=    0.0210522237 RMS(Int)=    0.0000001666
 RMS(Cart) too big - taking linear step, building new B-matrix and trying again
 Initial RMS(Int)=    0.0303045763
Transforming coordinates:
 Iter   0:  RMS(Cart)= 1133.1182304383 RMS(Int)=   13.5828651211
 Iter   5:  RMS(Cart)=    1.7426494316 RMS(Int)=    0.0495074666
 Iter  10:  RMS(Cart)=    0.0671368609 RMS(Int)=    0.0015638304
 Iter  15:  RMS(Cart)=    0.0220567340 RMS(Int)=    0.0000473905
 Iter  20:  RMS(Cart)=    0.0211585292 RMS(Int)=    0.0000014491
 Iter  25:  RMS(Cart)=    0.0211283398 RMS(Int)=    0.0000001750
 Iter  30:  RMS(Cart)=    0.0211228784 RMS(Int)=    0.0000001679
 Iter  35:  RMS(Cart)=    0.0211181539 RMS(Int)=    0.0000001678
 Iter  40:  RMS(Cart)=    0.0211134526 RMS(Int)=    0.0000001677
 Iter  45:  RMS(Cart)=    0.0211087528 RMS(Int)=    0.0000001677
 Iter  50:  RMS(Cart)=    0.0211040542 RMS(Int)=    0.0000001677
 Iter  55:  RMS(Cart)=    0.0210993566 RMS(Int)=    0.0000001676
 Iter  60:  RMS(Cart)=    0.0210946600 RMS(Int)=    0.0000001676
 Iter  65:  RMS(Cart)=    0.0210899645 RMS(Int)=    0.0000001676
 Iter  70:  RMS(Cart)=    0.0210852700 RMS(Int)=    0.0000001675
 Iter  75:  RMS(Cart)=    0.0210805766 RMS(Int)=    0.0000001675
 Iter  80:  RMS(Cart)=    0.0210758842 RMS(Int)=    0.0000001675
 Iter  85:  RMS(Cart)=    0.0210711928 RMS(Int)=    0.0000001674
 Iter  90:  RMS(Cart)=    0.0210665024 RMS(Int)=    0.0000001674
 Iter  95:  RMS(Cart)=    0.0210618131 RMS(Int)=    0.0000001673
 RMS(Cart) too big - taking linear step, building new B-matrix and trying again
 Initial RMS(Int)=    0.0303045763
Transforming coordinates:
 Iter   0:  RMS(Cart)= 1105.5619825319 RMS(Int)=   13.9089919427
 Iter   5:  RMS(Cart)=    2.0175884302 RMS(Int)=    0.0659662419
 Iter  10:  RMS(Cart)=    0.0901293034 RMS(Int)=    0.0028901944
 Iter  15:  RMS(Cart)=    0.0223259428 RMS(Int)=    0.0000794059
 Iter  20:  RMS(Cart)=    0.0211709577 RMS(Int)=    0.0000024703
 Iter  25:  RMS(Cart)=    0.0211339090 RMS(Int)=    0.0000001865
 Iter  30:  RMS(Cart)=    0.0211282226 RMS(Int)=    0.0000001683
 Iter  35:  RMS(Cart)=    0.0211234710 RMS(Int)=    0.0000001682
 Iter  40:  RMS(Cart)=    0.0211187485 RMS(Int)=    0.0000001682
 Iter  45:  RMS(Cart)=    0.0211140278 RMS(Int)=    0.0000001681
 Iter  50:  RMS(Cart)=    0.0211093082 RMS(Int)=    0.0000001681
 Iter  55:  RMS(Cart)=    0.0211045897 RMS(Int)=    0.0000001681
 Iter  60:  RMS(Cart)=    0.0210998722 RMS(Int)=    0.0000001680
 Iter  65:  RMS(Cart)=    0.0210951557 RMS(Int)=    0.0000001680
 Iter  70:  RMS(Cart)=    0.0210904403 RMS(Int)=    0.0000001679
 Iter  75:  RMS(Cart)=    0.0210857260 RMS(Int)=    0.0000001679
 Iter  80:  RMS(Cart)=    0.0210810127 RMS(Int)=    0.0000001679
 Iter  85:  RMS(Cart)=    0.0210763004 RMS(Int)=    0.0000001678
 Iter  90:  RMS(Cart)=    0.0210715892 RMS(Int)=    0.0000001678
 Iter  95:  RMS(Cart)=    0.0210668790 RMS(Int)=    0.0000001678
 RMS(Cart) too big - taking linear step, building new B-matrix and trying again
 Initial RMS(Int)=    0.0303045763
Transforming coordinates:
 Iter   0:  RMS(Cart)= 1032.3697920066 RMS(Int)=   15.1176201191
 RMS(Cart) increases - taking linear step, building new B-matrix and trying again
 Initial RMS(Int)=    0.0303045763
Transforming coordinates:
 Iter   0:  RMS(Cart)=  912.0766359717 RMS(Int)=   17.1976722975
 RMS(Cart) increases - taking linear step, building new B-matrix and trying again
 Initial RMS(Int)=    0.0303045763
Transforming coordinates:
 Iter   0:  RMS(Cart)=  766.8675150197 RMS(Int)=   18.4252013986
 RMS(Cart) increases - taking linear step, building new B-matrix and trying again
 Initial RMS(Int)=    0.0303045763
Transforming coordinates:
 Iter   0:  RMS(Cart)=  986.6915636801 RMS(Int)=   16.5865200538
 RMS(Cart) increases - taking linear step, building new B-matrix and trying again
 Initial RMS(Int)=    0.0303045763
Transforming coordinates:
 Iter   0:  RMS(Cart)=  989.1301568134 RMS(Int)=   17.6760357508
 Iter   5:  RMS(Cart)=    3.8783290765 RMS(Int)=    0.2881548860
 Iter  10:  RMS(Cart)=    0.1275194397 RMS(Int)=    0.0092513887
 Iter  15:  RMS(Cart)=    0.0222618745 RMS(Int)=    0.0002962719
 Iter  20:  RMS(Cart)=    0.0222792371 RMS(Int)=    0.0000094783
 Iter  25:  RMS(Cart)=    0.0222877533 RMS(Int)=    0.0000003519
 Iter  30:  RMS(Cart)=    0.0222832267 RMS(Int)=    0.0000001667
 Iter  35:  RMS(Cart)=    0.0222782577 RMS(Int)=    0.0000001660
 Iter  40:  RMS(Cart)=    0.0222732753 RMS(Int)=    0.0000001659
 Iter  45:  RMS(Cart)=    0.0222682936 RMS(Int)=    0.0000001659
 Iter  50:  RMS(Cart)=    0.0222633130 RMS(Int)=    0.0000001659
 Iter  55:  RMS(Cart)=    0.0222583334 RMS(Int)=    0.0000001658
 Iter  60:  RMS(Cart)=    0.0222533550 RMS(Int)=    0.0000001658
 Iter  65:  RMS(Cart)=    0.0222483776 RMS(Int)=    0.0000001658
 Iter  70:  RMS(Cart)=    0.0222434014 RMS(Int)=    0.0000001657
 Iter  75:  RMS(Cart)=    0.0222384264 RMS(Int)=    0.0000001657
 Iter  80:  RMS(Cart)=    0.0222334524 RMS(Int)=    0.0000001656
 Iter  85:  RMS(Cart)=    0.0222284795 RMS(Int)=    0.0000001656
 Iter  90:  RMS(Cart)=    0.0222235077 RMS(Int)=    0.0000001656
 Iter  95:  RMS(Cart)=    0.0222185370 RMS(Int)=    0.0000001655
 RMS(Cart) too big - taking linear step, building new B-matrix and trying again
 Initial RMS(Int)=    0.0303045763
Transforming coordinates:
 Iter   0:  RMS(Cart)=  957.8705256087 RMS(Int)=   19.0275249580
 Iter   5:  RMS(Cart)=    4.8785140982 RMS(Int)=    0.3261595204
 Iter  10:  RMS(Cart)=    0.2218585829 RMS(Int)=    0.0068904627
 Iter  15:  RMS(Cart)=    0.0260160594 RMS(Int)=    0.0005218078
 Iter  20:  RMS(Cart)=    0.0226869012 RMS(Int)=    0.0000139234
 Iter  25:  RMS(Cart)=    0.0226816840 RMS(Int)=    0.0000011545
 Iter  30:  RMS(Cart)=    0.0226758006 RMS(Int)=    0.0000001706
 Iter  35:  RMS(Cart)=    0.0226707777 RMS(Int)=    0.0000001650
 Iter  40:  RMS(Cart)=    0.0226657262 RMS(Int)=    0.0000001648
 Iter  45:  RMS(Cart)=    0.0226606781 RMS(Int)=    0.0000001648
 Iter  50:  RMS(Cart)=    0.0226556309 RMS(Int)=    0.0000001648
 Iter  55:  RMS(Cart)=    0.0226505849 RMS(Int)=    0.0000001647
 Iter  60:  RMS(Cart)=    0.0226455400 RMS(Int)=    0.0000001647
 Iter  65:  RMS(Cart)=    0.0226404963 RMS(Int)=    0.0000001647
 Iter  70:  RMS(Cart)=    0.0226354536 RMS(Int)=    0.0000001646
 Iter  75:  RMS(Cart)=    0.0226304121 RMS(Int)=    0.0000001646
 Iter  80:  RMS(Cart)=    0.0226253717 RMS(Int)=    0.0000001645
 Iter  85:  RMS(Cart)=    0.0226203324 RMS(Int)=    0.0000001645
 Iter  90:  RMS(Cart)=    0.0226152943 RMS(Int)=    0.0000001645
 Iter  95:  RMS(Cart)=    0.0226102572 RMS(Int)=    0.0000001644
 RMS(Cart) too big - taking linear step, building new B-matrix and trying again
 Initial RMS(Int)=    0.0303045763
Transforming coordinates:
 Iter   0:  RMS(Cart)=  932.3024018525 RMS(Int)=   20.3491124561
 RMS(Cart) increases - taking linear step, building new B-matrix and trying again
 Initial RMS(Int)=    0.0303045763
Transforming coordinates:
 Iter   0:  RMS(Cart)=  878.5916639183 RMS(Int)=   20.7194421276
 RMS(Cart) increases - taking linear step, building new B-matrix and trying again
 Initial RMS(Int)=    0.0303045763
Transforming coordinates:
 Iter   0:  RMS(Cart)=  906.0212182890 RMS(Int)=   21.2055715908
 RMS(Cart) increases - taking linear step, building new B-matrix and trying again
 Initial RMS(Int)=    0.0303045763
Transforming coordinates:
 Iter   0:  RMS(Cart)=  986.7064604846 RMS(Int)=   21.3368663184
 Iter   5:  RMS(Cart) increases - taking linear step, building new B-matrix and trying again
 Initial RMS(Int)=    0.0303045763
Transforming coordinates:
 Iter   0:  RMS(Cart)= 1157.1236978202 RMS(Int)=   21.9632229328
 Iter   5:  RMS(Cart)=    7.3908005115 RMS(Int)=    0.3487822738
 Iter  10:  RMS(Cart)=    0.2931446606 RMS(Int)=    0.0147550185
 Iter  15:  RMS(Cart)=    0.0223543139 RMS(Int)=    0.0006003429
 Iter  20:  RMS(Cart)=    0.0208909985 RMS(Int)=    0.0000235976
 Iter  25:  RMS(Cart)=    0.0208828338 RMS(Int)=    0.0000008920
 Iter  30:  RMS(Cart)=    0.0208735531 RMS(Int)=    0.0000001731
 Iter  35:  RMS(Cart)=    0.0208684303 RMS(Int)=    0.0000001683
 Iter  40:  RMS(Cart)=    0.0208638072 RMS(Int)=    0.0000001681
 Iter  45:  RMS(Cart)=    0.0208592307 RMS(Int)=    0.0000001681
 Iter  50:  RMS(Cart)=    0.0208546589 RMS(Int)=    0.0000001680
 Iter  55:  RMS(Cart)=    0.0208500886 RMS(Int)=    0.0000001680
 Iter  60:  RMS(Cart)=    0.0208455193 RMS(Int)=    0.0000001680
 Iter  65:  RMS(Cart)=    0.0208409511 RMS(Int)=    0.0000001679
 Iter  70:  RMS(Cart)=    0.0208363838 RMS(Int)=    0.0000001679
 Iter  75:  RMS(Cart)=    0.0208318174 RMS(Int)=    0.0000001678
 Iter  80:  RMS(Cart)=    0.0208272521 RMS(Int)=    0.0000001678
 Iter  85:  RMS(Cart)=    0.0208226879 RMS(Int)=    0.0000001678
 Iter  90:  RMS(Cart)=    0.0208181245 RMS(Int)=    0.0000001677
 Iter  95:  RMS(Cart)=    0.0208135621 RMS(Int)=    0.0000001677
 RMS(Cart) too big - taking linear step, building new B-matrix and trying again
Not converged!


Optimization step in internals failed. Trying Cartesian step.

Reading the OPT-File                    .... done
Number of atoms                         ....  21
Number of degrees of freedom            ....  63
Current Energy                          ....  -691.404808210 Eh
Current gradient norm                   ....     0.011900385 Eh/bohr
Maximum allowed component of the step   ....  0.300
Current trust radius                    ....  0.300
Reading aproximate Hessian              ... done
Forming augmented Hessian.
Diagonalizing augmented Hessian.
Reducing step size.
The input lambda is                     ....    -0.000889
   iter:   5  x=   -0.001324  g=   51.160185 f(x)=     0.000000
The output lambda is                    ....    -0.001324 (6 iterations)
The step size is now                    ....  0.300
Storing new coordinates                 .... done

                                .--------------------.
          ----------------------|Geometry convergence|-------------------------
          Item                value                   Tolerance       Converged
          ---------------------------------------------------------------------
          RMS gradient        0.0015705119            0.0001000000      NO
          MAX gradient        0.0077966532            0.0003000000      NO
          RMS step            0.0397359707            0.0020000000      NO
          MAX step            0.0948502877            0.0040000000      NO
          -------------------------------------------------------------------------

The optimization has not yet converged - more geometry cycles are needed

Geometry step timings:
Preparation and reading OPT file:      0.001 s (36.074 %)
Hessian update/contruction      :      0.001 s (23.546 %)
Making the step                 :      0.001 s (17.058 %)
Storing new data                :      0.000 s ( 2.489 %)
Checking convergence            :      0.001 s (20.805 %)
Total time                      :      0.004 s

Reseting .opt file and rebuilding internals.

Time for energy+gradient        :     66.252 s
Time for complete geometry iter :     66.400 s




    ----------------------------------------------------------------------------
                                  WARNING !!!
       The optimization did not converge but reached the maximum number of
       optimization cycles.
       Please check your results very carefully.
    ----------------------------------------------------------------------------



--------------------------------
SUGGESTED CITATIONS FOR THIS RUN
--------------------------------

Below you find a list of papers that are relevant to this ORCA run
We neither can nor want to force you to cite these papers, but we appreciate if you do
You receive ORCA, which is the product of decades of hard work by many enthusiastic individuals, for free
The only thing we kindly ask in return is that you cite our papers,
We deeply appreciate it, if you show your appreciation for ORCA by not just citing the generic ORCA reference.

Please note that relegating all ORCA citations to the supporting information does *not* help us.
SI sections are not indexed - citations you put there will not count into any citation statistics
But we need these citations in order to attract the funding resources that allow us to do what we are doing

Therefore, if you are a happy ORCA user, please consider citing a few of the papers listed below in the main body of your paper

In addition to the list printed below, the program has created the file li_ec2.bibtex that contains the list in bibtex format
You can import this file easily into all common literature databanks and citation aid programs


List of essential papers. We consider these as the minimum necessary citations

  1. Neese,F.
     Software update: the ORCA program system, version 5.0
     WIRES Comput. Molec. Sci., 2022 12(1)e1606
     doi.org/10.1002/wcms.1606

List of papers to cite with high priority. The work reported in these papers was absolutely
necessary for this run to complete.
Our perspective: the developers of density functionals and basis sets usually get cited in chemistry papers
Good! But without the algorithms to do something with them, the functionals or basis sets would not do anything.
Hence, in our opinion, the algorithm design and method developments papers are equally worthy of getting cited

  1. Neese,F.
     An improvement of the resolution of the identity approximation for the formation of the Coulomb matrix
     J. Comp. Chem., 2003 24(14)1740-1747
     doi.org/10.1002/jcc.10318
  2. Neese,F.; Wennmohs,F.; Hansen,A.; Becker,U.
     Efficient, approximate and parallel Hartree-Fock and hybrid DFT calculations. A 'chain-of-spheres' algorithm for the Hartree-Fock exchange
     Chem. Phys., 2009 356(1-3)98-109
     doi.org/10.1016/j.chemphys.2008.10.036
  3. Helmich-Paris,B.; de Souza,B.; Neese,F.; Izsák,R.
     An improved chain of spheres for exchange algorithm
     J. Chem. Phys., 2021 155 104109
     doi.org/doi: 10.1063/5.0058766.
  4. Neese,F.
     The SHARK Integral Generation and Digestion System
     J. Comp. Chem., 2022  1-16
     doi.org/10.1002/jcc.26942
  5. Grimme,S.; Antony,J.; Ehrlich,S.; Krieg,H.
     A consistent and accurate ab initio parametrization of density functional dispersion correction (DFT-D) for the 94 elements H-Pu
     J. Chem. Phys., 2010 132 154104
     doi.org/10.1063/1.3382344
  6. Grimme,S.; Ehrlich,S.; Goerigk,L.
     Effect of the damping function in dispersion corrected density functional theory
     J. Comput. Chem., 2011 32(7)1456-1465
     doi.org/10.1002/jcc.21759

List of suggested additional citations. These are papers that are important in the 'surrounding' of 
of this run, or papers that preceded the highly important papers. If you like your results we are grateful for a citation.

  1. Izsak,R.; Neese,F.
     An overlap fitted chain of spheres exchange method
     J. Chem. Phys., 2011 135 144105
     doi.org/10.1063/1.3646921
  2. Izsak,R.; Hansen,A.; Neese,F.
     The resolution of identity and chain of spheres approximations for the LPNO-CCSD singles Fock term
     Molec. Phys., 2012 110 2413-2417
     doi.org/10.1080/00268976.2012.687466
  3. Neese,F.
     The ORCA program system
     WIRES Comput. Molec. Sci., 2012 2(1)73-78
     doi.org/10.1002/wcms.81
  4. Izsak,R.; Neese,F.; Klopper,W.
     Robust fitting techniques in the chain of spheres approximation to the Fock exchange: The role of the complementary space
     J. Chem. Phys., 2013 139 
     doi.org/10.1063/1.4819264
  5. Neese,F.
     Software update: the ORCA program system, version 4.0
     WIRES Comput. Molec. Sci., 2018 8(1)1-6
     doi.org/10.1002/wcms.1327
  6. Neese,F.; Wennmohs,F.; Becker,U.; Riplinger,C.
     The ORCA quantum chemistry program package
     J. Chem. Phys., 2020 152 Art. No. L224108
     doi.org/10.1063/5.0004608

List of optional additional citations

  1. Neese,F.
     Approximate second-order SCF convergence for spin unrestricted wavefunctions
     Chem. Phys. Lett., 2000 325(1-3)93-98
     doi.org/10.1016/s0009-2614(00)00662-x

Timings for individual modules:

Sum of individual times          ...     4926.601 sec (=  82.110 min)
Startup calculation              ...      112.942 sec (=   1.882 min)   2.3 %
SCF iterations                   ...     2609.130 sec (=  43.486 min)  53.0 %
SCF Gradient evaluation          ...     2202.398 sec (=  36.707 min)  44.7 %
Geometry relaxation              ...        2.130 sec (=   0.035 min)   0.0 %
                             ****ORCA TERMINATED NORMALLY****
TOTAL RUN TIME: 0 days 1 hours 22 minutes 17 seconds 414 msec
