
                                 *****************
                                 * O   R   C   A *
                                 *****************

                                            #,                                       
                                            ###                                      
                                            ####                                     
                                            #####                                    
                                            ######                                   
                                           ########,                                 
                                     ,,################,,,,,                         
                               ,,#################################,,                 
                          ,,##########################################,,             
                       ,#########################################, ''#####,          
                    ,#############################################,,   '####,        
                  ,##################################################,,,,####,       
                ,###########''''           ''''###############################       
              ,#####''   ,,,,##########,,,,          '''####'''          '####       
            ,##' ,,,,###########################,,,                        '##       
           ' ,,###''''                  '''############,,,                           
         ,,##''                                '''############,,,,        ,,,,,,###''
      ,#''                                            '''#######################'''  
     '                                                          ''''####''''         
             ,#######,   #######,   ,#######,      ##                                
            ,#'     '#,  ##    ##  ,#'     '#,    #''#        ,####,   ,####,        
            ##       ##  ##   ,#'  ##            #'  '#       #'       #'  '#        
            ##       ##  #######   ##           ,######,      #####,   #    #        
            '#,     ,#'  ##    ##  '#,     ,#' ,#      #,     #,   #   #,  ,#        
             '#######'   ##     ##  '#######'  #'      '#     '####' # '####'        



                #########################################################
                #                        -***-                          #
                #          Department of theory and spectroscopy        #
                #                                                       #
                #                      Frank Neese                      #
                #                                                       #
                #     Directorship, Architecture, Infrastructure        #
                #                    SHARK, DRIVERS                     #
                #        Core code/Algorithms in most modules           #
                #                                                       #
                #        Max Planck Institute fuer Kohlenforschung      #
                #                Kaiser Wilhelm Platz 1                 #
                #                 D-45470 Muelheim/Ruhr                 #
                #                      Germany                          #
                #                                                       #
                #                  All rights reserved                  #
                #                        -***-                          #
                #########################################################


                         Program Version 6.0.1  -  RELEASE   -


 With contributions from (in alphabetic order):
[Max-Planck-Institut fuer Kohlenforschung]                               
  Daniel Aravena         : Magnetic Suceptibility                        
  Michael Atanasov       : Ab Initio Ligand Field Theory (pilot matlab implementation)
  Alexander A. Auer      : GIAO ZORA, VPT2 properties, NMR spectrum      
  Ute Becker             : All parallelization in ORCA, NUMFREQ, NUMCALC 
  Giovanni Bistoni       : ED, misc. LED, open-shell LED, HFLD           
  Martin Brehm           : Molecular dynamics                            
  Dmytro Bykov           : pre 5.0 version of the SCF Hessian            
  Marcos Casanova-Páez   : Triplet and SCS-CIS(D). UHF-(DLPNO)-IP/EA/STEOM-CCSD. UHF-CVS-IP/STEOM-CCSD   
  Vijay G. Chilkuri      : MRCI spin determinant printing, contributions to CSF-ICE 
  Pauline Colinet        : FMM embedding                                 
  Dipayan Datta          : RHF DLPNO-CCSD density                        
  Achintya Kumar Dutta   : EOM-CC, STEOM-CC                              
  Nicolas Foglia         : Exact transition moments, OPA infrastructure, MCD improvements    
  Dmitry Ganyushin       : Spin-Orbit,Spin-Spin,Magnetic field MRCI      
  Miquel Garcia-Rates    : C-PCM and meta-GGA Hessian, CCSD/C-PCM, Gaussian charge scheme 
  Tiago L. C. Gouveia    : GS-ROHF, GS-ROCIS                             
  Yang Guo               : DLPNO-NEVPT2, F12-NEVPT2, CIM, IAO-localization        
  Andreas Hansen         : Spin unrestricted coupled pair/coupled cluster methods 
  Ingolf Harden          : AUTO-CI MPn and infrastructure                
  Benjamin Helmich-Paris : MC-RPA, TRAH-(SCF,CASSCF), AVAS, COSX integrals, SCF dyn. polar. 
  Lee Huntington         : MR-EOM, pCC                                   
  Robert Izsak           : Overlap fitted RIJCOSX, COSX-SCS-MP3, EOM     
  Riya Kayal             : Wick's Theorem for AUTO-CI, AUTO-CI UHF-CCSDT 
  Emily Kempfer          : AUTO-CI, RHF CISDT and CCSDT                  
  Christian Kollmar      : KDIIS, OOCD, Brueckner-CCSD(T), CCSD density, CASPT2, CASPT2-K, improved NEVPT2 
  Axel Koslowski         : Symmetry handling                             
  Simone Kossmann        : meta-GGA functionals, TD-DFT gradient, OOMP2, (MP2 Hessian; deprecated post 5.0) 
  Lucas Lang             : DCDCAS                                        
  Marvin Lechner         : AUTO-CI (C++ implementation), FIC-MRCC        
  Spencer Leger          : CASSCF response                               
  Dagmar Lenk            : GEPOL surface, SMD, ORCA-2-JSON               
  Dimitrios Liakos       : Extrapolation schemes; Compound Job, initial MDCI parallelization 
  Dimitrios Manganas     : Further ROCIS development; embedding schemes. LFT, Crystal Embedding 
  Dimitrios Pantazis     : SARC Basis sets                               
  Anastasios Papadopoulos: AUTO-CI, single reference methods and gradients 
  Taras Petrenko         : pre 6.0 DFT Hessian and TD-DFT gradient, (ASA, deprecated), ECA, 1-Electron XAS/XES, NRVS 
  Peter Pinski           : DLPNO-MP2, DLPNO-MP2 Gradient                 
  Christoph Reimann      : Effective Core Potentials                     
  Marius Retegan         : Local ZFS, SOC                                
  Christoph Riplinger    : Optimizer, TS searches, QM/MM, DLPNO-CCSD(T), (RO)-DLPNO pert. Triples 
  Michael Roemelt        : Original ROCIS implementation                 
  Masaaki Saitow         : Open-shell DLPNO-CCSD energy and density      
  Barbara Sandhoefer     : DKH picture change effects                    
  Kantharuban Sivalingam : CASSCF convergence/infrastructure, NEVPT2 and variants, FIC-MRCI 
  Bernardo de Souza      : ESD, SOC TD-DFT                               
  Georgi L. Stoychev     : AutoAux, RI-MP2 NMR, DLPNO-MP2 response, X2C  
  Van Anh Tran           : RI-MP2 g-tensors                              
  Willem Van den Heuvel  : Paramagnetic NMR                              
  Zikuan Wang            : NOTCH, Electric field optimization            
  Frank Wennmohs         : Technical directorship and infrastructure     
  Hang Xu                : AUTO-CI-Response properties                   
                                                                         
[FACCTs GmbH]                                                            
  Markus Bursch, Miquel Garcia-Rates, Christoph Riplinger, Bernardo de Souza, Georgi L. Stoychev 
                                                                 
  APM, Basis sets (HGBS, AHGBS, def-TZVP (Ac-Lr), def2-XVPD (La-Lu)), CI-OPT, improved COSX, DLPNO-Multilevel,           
  DOCKER, DRACO, updates on ESD, GOAT, IRC, LR-CPCM, MBIS, meta-GGA TD-DFT gradient, ML-optimized integration grids, 
  MM, NACMEs, nearIR, NEB, NEB-TS, NL-DFT gradient (VV10), 2- and 3-layer-ONIOM, interface openCOSMO-RS, QMMM,   
  Crystal-QMMM, SF, symmetry and pop. for TD-DFT, r2SCAN hybrids, SOLVATOR                                   
                                                                         
[Other institutions]                                                     
  V. Asgeirsson          : NEB                                           
  Christoph Bannwarth    : sTDA-DFT, sTD-DFT, PBEh-3c, B97-3c, D3        
  Sebastian Ehlert       : rSCAN, r2SCAN, r2SCAN-3c, D4, dhf basis sets  
  Marvin Friede          : D4 for Fr, Ra, Ac-Lr                          
  Lars Goerigk           : TD-DFT with DH, B97 family of functionals     
  Stefan Grimme          : VdW corrections, initial TS optimization, DFT functionals, gCP, sTDA/sTD-DF 
  Waldemar Hujo          : DFT-NL                                        
  H. Jonsson             : NEB                                           
  Holger Kruse           : gCP                                           
  Marcel Mueller         : wB97X-3c, vDZP basis set                      
  Hagen Neugebauer       : wr2SCAN                                       
  Tobias Risthaus        : range-separated hybrid DFT                    
  Lukas Wittmann         : regularized MP2, r2SCAN double-hybrids, wr2SCAN        
                                                                         
We gratefully acknowledge several colleagues who have allowed us to      
interface, adapt or use parts of their codes:                            
  Ed Valeev, F. Pavosevic, A. Kumar             : LibInt (2-el integral package), F12 methods 
  Garnet Chan, S. Sharma, J. Yang, R. Olivares  : DMRG                   
  Ulf Ekstrom                                   : XCFun DFT Library      
  Mihaly Kallay                                 : mrcc  (arbitrary order and MRCC methods)
  Frank Weinhold                                : gennbo (NPA and NBO analysis)           
  Simon Mueller                                 : openCOSMO-RS                            
  Christopher J. Cramer and Donald G. Truhlar   : smd solvation model                     
  S Lehtola, MJT Oliveira, MAL Marques          : LibXC Library                           
  Liviu Ungur et al                             : ANISO software                          


 Your calculation uses the libint2 library for the computation of 2-el integrals
 For citations please refer to: http://libint.valeyev.net

 Your ORCA version has been built with support for libXC version: 6.2.2
 For citations please refer to: https://libxc.gitlab.io

 This ORCA versions uses:
   CBLAS   interface :  Fast vector & matrix operations
   LAPACKE interface :  Fast linear algebra routines
   SCALAPACK package :  Parallel linear algebra routines
   Shared memory     :  Shared parallel matrices


Your calculation utilizes the atom-pairwise dispersion correction
with the Becke-Johnson damping scheme (D3BJ)


Warning: RI is on but no J-basis has been assigned. Assigning Def2/J (nothing to worry about!)
================================================================================

----- Orbital basis set information -----
Your calculation utilizes the basis: def2-SVP
   F. Weigend and R. Ahlrichs, Phys. Chem. Chem. Phys. 7, 3297 (2005).

The basis set includes element-specific modifications.

Your calculation utilizes the basis: def2-TZVP
   F. Weigend and R. Ahlrichs, Phys. Chem. Chem. Phys. 7, 3297 (2005).

----- AuxJ basis set information -----
Your calculation utilizes the auxiliary basis: def2/J
   F. Weigend, Phys. Chem. Chem. Phys. 8, 1057 (2006).

================================================================================
                                        WARNINGS
                       Please study these warnings very carefully!
================================================================================


================================================================================
                                       INPUT FILE
================================================================================
NAME = li_ec_1_PBE_SP.inp.txt
|  1> # avogadro generated ORCA input file 
|  2> # Basic Mode
|  3> # 
|  4> ! PBE D3BJ def2-SVP TightSCF SP
|  5> 
|  6> %basis
|  7>   NewGTO Li "def2-TZVP" end
|  8> end
|  9> 
| 10> * xyz 1 1
| 11>    C     -7.838869    2.537876    0.009965
| 12>    C     -6.302178    2.438158    0.053331
| 13>    O     -8.252298    1.157218    0.172246
| 14>    H     -8.231086    2.895767   -0.952450
| 15>    H     -8.272134    3.125146    0.829102
| 16>    O     -6.072348    1.011596   -0.069864
| 17>    H     -5.864861    2.768548    1.006101
| 18>    H     -5.797763    2.941124   -0.781049
| 19>    C     -7.209465    0.364552    0.061126
| 20>    O     -7.288795   -0.857322    0.077756
| 21>    Li    -7.364314   -2.572663    0.098235
| 22> *
| 23> 
| 24> 
| 25>                          ****END OF INPUT****
================================================================================

                       ****************************
                       * Single Point Calculation *
                       ****************************

---------------------------------
CARTESIAN COORDINATES (ANGSTROEM)
---------------------------------
  C     -7.838869    2.537876    0.009965
  C     -6.302178    2.438158    0.053331
  O     -8.252298    1.157218    0.172246
  H     -8.231086    2.895767   -0.952450
  H     -8.272134    3.125146    0.829102
  O     -6.072348    1.011596   -0.069864
  H     -5.864861    2.768548    1.006101
  H     -5.797763    2.941124   -0.781049
  C     -7.209465    0.364552    0.061126
  O     -7.288795   -0.857322    0.077756
  Li    -7.364314   -2.572663    0.098235

----------------------------
CARTESIAN COORDINATES (A.U.)
----------------------------
  NO LB      ZA    FRAG     MASS         X           Y           Z
   0 C     6.0000    0    12.011  -14.813316    4.795891    0.018831
   1 C     6.0000    0    12.011  -11.909390    4.607451    0.100781
   2 O     8.0000    0    15.999  -15.594583    2.186825    0.325498
   3 H     1.0000    0     1.008  -15.554498    5.472207   -1.799870
   4 H     1.0000    0     1.008  -15.632068    5.905670    1.566776
   5 O     8.0000    0    15.999  -11.475075    1.911639   -0.132024
   6 H     1.0000    0     1.008  -11.082981    5.231798    1.901255
   7 H     1.0000    0     1.008  -10.956184    5.557919   -1.475969
   8 C     6.0000    0    12.011  -13.623914    0.688903    0.115511
   9 O     8.0000    0    15.999  -13.773826   -1.620104    0.146938
  10 Li    3.0000    0     6.941  -13.916537   -4.861629    0.185637

--------------------------------
INTERNAL COORDINATES (ANGSTROEM)
--------------------------------
 C      0   0   0     0.000000000000     0.00000000     0.00000000
 C      1   0   0     1.540533517636     0.00000000     0.00000000
 O      1   2   0     1.450336227902   102.68418022     0.00000000
 H      1   2   3     1.099164580577   113.68235512   243.80339477
 H      1   2   3     1.097082511890   114.05235766   116.89196341
 O      2   1   3     1.450199288639   102.67200291    12.31553848
 H      2   1   3     1.099169861072   113.69156391   256.11832266
 H      2   1   3     1.097086721176   114.05071457   129.20249066
 C      3   1   2     1.314597926305   109.78051238   349.36171270
 O      9   3   1     1.224559462695   123.30610450   184.48644678
 Li    10   9   3     1.717124705746   178.80248973   181.78780656

---------------------------
INTERNAL COORDINATES (A.U.)
---------------------------
 C      0   0   0     0.000000000000     0.00000000     0.00000000
 C      1   0   0     2.911186448459     0.00000000     0.00000000
 O      1   2   0     2.740738272840   102.68418022     0.00000000
 H      1   2   3     2.077120033397   113.68235512   243.80339477
 H      1   2   3     2.073185493786   114.05235766   116.89196341
 O      2   1   3     2.740479495135   102.67200291    12.31553848
 H      2   1   3     2.077130012086   113.69156391   256.11832266
 H      2   1   3     2.073193448185   114.05071457   129.20249066
 C      3   1   2     2.484230056937   109.78051238   349.36171270
 O      9   3   1     2.314082019195   123.30610450   184.48644678
 Li    10   9   3     3.244895431650   178.80248973   181.78780656

---------------------
BASIS SET INFORMATION
---------------------
There are 4 groups of distinct atoms

 Group   1 Type C   : 7s4p1d contracted to 3s2p1d pattern {511/31/1}
 Group   2 Type O   : 7s4p1d contracted to 3s2p1d pattern {511/31/1}
 Group   3 Type H   : 4s1p contracted to 2s1p pattern {31/1}
 Group   4 Type Li  : 11s3p contracted to 5s3p pattern {62111/111}

Atom   0C    basis set group =>   1
Atom   1C    basis set group =>   1
Atom   2O    basis set group =>   2
Atom   3H    basis set group =>   3
Atom   4H    basis set group =>   3
Atom   5O    basis set group =>   2
Atom   6H    basis set group =>   3
Atom   7H    basis set group =>   3
Atom   8C    basis set group =>   1
Atom   9O    basis set group =>   2
Atom  10Li   basis set group =>   4
---------------------------------
AUXILIARY/J BASIS SET INFORMATION
---------------------------------
There are 4 groups of distinct atoms

 Group   1 Type C   : 12s5p4d2f1g contracted to 6s4p3d1f1g pattern {711111/2111/211/2/1}
 Group   2 Type O   : 12s5p4d2f1g contracted to 6s4p3d1f1g pattern {711111/2111/211/2/1}
 Group   3 Type H   : 5s2p1d contracted to 3s1p1d pattern {311/2/1}
 Group   4 Type Li  : 12s5p4d2f1g contracted to 6s4p3d1f1g pattern {711111/2111/211/2/1}

Atom   0C    basis set group =>   1
Atom   1C    basis set group =>   1
Atom   2O    basis set group =>   2
Atom   3H    basis set group =>   3
Atom   4H    basis set group =>   3
Atom   5O    basis set group =>   2
Atom   6H    basis set group =>   3
Atom   7H    basis set group =>   3
Atom   8C    basis set group =>   1
Atom   9O    basis set group =>   2
Atom  10Li   basis set group =>   4
------------------------------------------------------------------------------
                             ORCA STARTUP CALCULATIONS
                           -- RI-GTO INTEGRALS CHOSEN --
------------------------------------------------------------------------------
------------------------------------------------------------------------------
                   ___                                                        
                  /   \      - P O W E R E D   B Y -                         
                 /     \                                                     
                 |  |  |   _    _      __       _____    __    __             
                 |  |  |  | |  | |    /  \     |  _  \  |  |  /  |          
                  \  \/   | |  | |   /    \    | | | |  |  | /  /          
                 / \  \   | |__| |  /  /\  \   | |_| |  |  |/  /          
                |  |  |   |  __  | /  /__\  \  |    /   |      \           
                |  |  |   | |  | | |   __   |  |    \   |  |\   \          
                \     /   | |  | | |  |  |  |  | |\  \  |  | \   \       
                 \___/    |_|  |_| |__|  |__|  |_| \__\ |__|  \__/        
                                                                              
                      - O R C A' S   B I G   F R I E N D -                    
                                      &                                       
                       - I N T E G R A L  F E E D E R -                       
                                                                              
 v1 FN, 2020, v2 2021, v3 2022-2024                                           
------------------------------------------------------------------------------


----------------------
SHARK INTEGRAL PACKAGE
----------------------

Number of atoms                             ...     11
Number of basis functions                   ...    118
Number of shells                            ...     56
Maximum angular momentum                    ...      2
Integral batch strategy                     ... SHARK/LIBINT Hybrid
RI-J (if used) integral strategy            ... SPLIT-RIJ (Revised 2003 algorithm where possible)
Printlevel                                  ...      1
Contraction scheme used                     ... SEGMENTED contraction
Prescreening option                         ... SCHWARTZ
   Thresh                                   ... 2.500e-11
   Tcut                                     ... 2.500e-12
   Tpresel                                  ... 2.500e-12 
Coulomb Range Separation                    ... NOT USED
Exchange Range Separation                   ... NOT USED
Multipole approximations                    ... NOT USED
Finite Nucleus Model                        ... NOT USED
CABS basis                                  ... NOT available
Auxiliary Coulomb fitting basis             ... AVAILABLE
   # of basis functions in Aux-J            ...    387
   # of shells in Aux-J                     ...    125
   Maximum angular momentum in Aux-J        ...      4
Auxiliary J/K fitting basis                 ... NOT available
Auxiliary Correlation fitting basis         ... NOT available
Auxiliary 'external' fitting basis          ... NOT available

Checking pre-screening integrals            ... done (  0.0 sec) Dimension = 56
Check shell pair data                       ... done (  0.0 sec)
Shell pair information
Shell pair cut-off parameter TPreSel        ...   2.5e-12
Total number of shell pairs                 ...      1596
Shell pairs after pre-screening             ...      1485
Total number of primitive shell pairs       ...      5777
Primitive shell pairs kept                  ...      4098
          la=0 lb=0:    452 shell pairs
          la=1 lb=0:    548 shell pairs
          la=1 lb=1:    180 shell pairs
          la=2 lb=0:    174 shell pairs
          la=2 lb=1:    110 shell pairs
          la=2 lb=2:     21 shell pairs

Calculating one electron integrals          ... done (  0.0 sec)
Calculating RI/J V-Matrix + Cholesky decomp.... done (  0.0 sec)
Calculating Nuclear repulsion               ... done (  0.0 sec) ENN=    268.648937040990 Eh

Diagonalization of the overlap matrix:
Smallest eigenvalue                        ... 2.834e-03
Time for diagonalization                   ...    0.007 sec
Threshold for overlap eigenvalues          ... 1.000e-07
Number of eigenvalues below threshold      ... 0
Time for construction of square roots      ...    0.001 sec
Total time needed                          ...    0.008 sec

-------------------
DFT GRID GENERATION
-------------------

General Integration Accuracy     IntAcc      ... 4.388
Radial Grid Type                 RadialGrid  ... OptM3 with GC (2021)
Angular Grid (max. ang.)         AngularGrid ... 4 (Lebedev-302)
Angular grid pruning method      GridPruning ... 4 (adaptive)
Weight generation scheme         WeightScheme... mBecke (2022)
Basis function cutoff            BFCut       ... 1.0000e-11
Integration weight cutoff        WCut        ... 1.0000e-14
Partially contracted basis set               ... off
Rotationally invariant grid construction     ... off
Angular grids for H and He will be reduced by one unit

Total number of grid points                  ...    55171
Total number of batches                      ...      869
Average number of points per batch           ...       63
Average number of grid points per atom       ...     5016
Initializing property integral containers    ... done (  0.0 sec)

SHARK setup successfully completed in   0.5 seconds

Maximum memory used throughout the entire STARTUP-calculation: 22.6 MB
-------------------------------------------------------------------------------
                                 ORCA GUESS
                   Start orbitals & Density for SCF / CASSCF
-------------------------------------------------------------------------------

------------
SCF SETTINGS
------------
Hamiltonian:
 Density Functional     Method          .... DFT(GTOs)
 Exchange Functional    Exchange        .... PBE
   PBE kappa parameter   XKappa         ....  0.804000
   PBE mue parameter    XMuePBE         ....  0.219520
 Correlation Functional Correlation     .... PBE
   PBE beta parameter  CBetaPBE         ....  0.066725
 LDA part of GGA corr.  LDAOpt          .... PW91-LDA
 Gradients option       PostSCFGGA      .... off
   NL short-range parameter             ....  6.400000
 RI-approximation to the Coulomb term is turned on
   Number of AuxJ basis functions       .... 387


General Settings:
 Integral files         IntName         .... li_ec_1_PBE_SP.inp
 Hartree-Fock type      HFTyp           .... RHF
 Total Charge           Charge          ....    1
 Multiplicity           Mult            ....    1
 Number of Electrons    NEL             ....   48
 Basis Dimension        Dim             ....  118
 Nuclear Repulsion      ENuc            ....    268.6489370410 Eh

Convergence Acceleration:
 AO-DIIS                CNVDIIS         .... on
   Start iteration      DIISMaxIt       ....    12
   Startup error        DIISStart       ....  0.200000
   # of expansion vecs  DIISMaxEq       ....     5
   Bias factor          DIISBfac        ....   1.050
   Max. coefficient     DIISMaxC        ....  10.000
 MO-DIIS                CNVKDIIS        .... off
 Trust-Rad. Augm. Hess. CNVTRAH         .... auto
   Auto Start mean grad. ratio tolernc. ....  1.125000
   Auto Start start iteration           ....    50
   Auto Start num. interpolation iter.  ....    10
   Max. Number of Micro iterations      ....    24
   Max. Number of Macro iterations      .... Maxiter - #DIIS iter
   Number of Davidson start vectors     ....     2
   Converg. threshold    (grad. norm)   ....   1.000e-05
   Grad. Scal. Fac. for Micro threshold ....   0.100
   Minimum threshold for Micro iter.    ....   1.000e-02
   NR start threshold (gradient norm)   ....   1.000e-04
   Initial trust radius                 ....   0.400
   Minimum AH scaling param. (alpha)    ....   1.000
   Maximum AH scaling param. (alpha)    .... 1000.000
   Quad. conv. algorithm                .... NR
   White noise on init. David. guess    .... on
   Maximum white noise                  ....   0.010
   Pseudo random numbers                .... off
   Inactive MOs                         .... canonical
   Orbital update algorithm             .... Taylor
   Preconditioner                       .... Diag
   Full preconditioner red. dimension   ....   250
 SOSCF                  CNVSOSCF        .... on
   Start iteration      SOSCFMaxIt      ....   150
   Startup grad/error   SOSCFStart      ....  0.003300
   Hessian update       SOSCFHessUp     .... L-BFGS
 Level Shifting         CNVShift        .... on
   Level shift para.    LevelShift      ....    0.2500
   Turn off err/grad.   ShiftErr        ....    0.0010
 Zerner damping         CNVZerner       .... off
 Static damping         CNVDamp         .... on
   Fraction old density DampFac         ....    0.7000
   Max. Damping (<1)    DampMax         ....    0.9800
   Min. Damping (>=0)   DampMin         ....    0.0000
   Turn off err/grad.   DampErr         ....    0.1000

SCF Procedure:
 Maximum # iterations   MaxIter         ....   125
 SCF integral mode      SCFMode         .... Direct
   Integral package                     .... SHARK and LIBINT hybrid scheme
 Reset frequency        DirectResetFreq ....    20
 Integral Threshold     Thresh          ....  2.500e-11 Eh
 Primitive CutOff       TCut            ....  2.500e-12 Eh

Convergence Tolerance:
 Convergence Check Mode ConvCheckMode   .... Total+1el-Energy
 Convergence forced     ConvForced      .... 0
 Energy Change          TolE            ....  1.000e-08 Eh
 1-El. energy change                    ....  1.000e-05 Eh
 Orbital Gradient       TolG            ....  1.000e-05
 Orbital Rotation angle TolX            ....  1.000e-05
 DIIS Error             TolErr          ....  5.000e-07

------------------------------
INITIAL GUESS: MODEL POTENTIAL
------------------------------
Loading Hartree-Fock densities                     ... done
Calculating cut-offs                               ... done
Initializing the effective Hamiltonian             ... done
Setting up the integral package (SHARK)            ... done
Starting the Coulomb interaction                   ... done (   0.0 sec)
Making the grid                                    ... done (   0.1 sec)
Mapping shells                                     ... done
Starting the XC term evaluation                    ... done (   0.1 sec)
  promolecular density results
     # of electrons  =     48.999638343
     EX              =    -42.785901482
     EC              =     -1.621821821
     EX+EC           =    -44.407723303
Transforming the Hamiltonian                       ... done (   0.0 sec)
Diagonalizing the Hamiltonian                      ... done (   0.0 sec)
Back transforming the eigenvectors                 ... done (   0.0 sec)
Now organizing SCF variables                       ... done
                      ------------------
                      INITIAL GUESS DONE (   0.2 sec)
                      ------------------
             **** ENERGY FILE WAS UPDATED (li_ec_1_PBE_SP.inp.en.tmp) ****
Finished Guess after   0.2 sec
Maximum memory used throughout the entire GUESS-calculation: 11.7 MB

-------------------------------------------------------------------------------------------
                                      ORCA LEAN-SCF
                              memory conserving SCF solver
-------------------------------------------------------------------------------------------

----------------------------------------D-I-I-S--------------------------------------------
Iteration    Energy (Eh)           Delta-E    RMSDP     MaxDP     DIISErr   Damp  Time(sec)
-------------------------------------------------------------------------------------------
               ***  Starting incremental Fock matrix formation  ***
    1    -348.9606516761755870     0.00e+00  4.15e-03  1.13e-01  2.79e-01  0.700   0.4
    2    -349.0412199166816549    -8.06e-02  2.04e-03  5.58e-02  8.29e-02  0.700   0.4
                               ***Turning on AO-DIIS***
    3    -349.0620009380607485    -2.08e-02  6.32e-04  9.78e-03  1.83e-02  0.700   0.3
    4    -349.0782521011953463    -1.63e-02  1.06e-03  2.40e-02  2.08e-02  0.000   0.3
    5    -349.1171091911406279    -3.89e-02  2.66e-04  6.06e-03  5.43e-03  0.000   0.3
                              *** Initializing SOSCF ***
---------------------------------------S-O-S-C-F--------------------------------------
Iteration    Energy (Eh)           Delta-E    RMSDP     MaxDP     MaxGrad    Time(sec)
--------------------------------------------------------------------------------------
    6    -349.1172554266395878    -1.46e-04  1.15e-04  1.86e-03  3.26e-03     0.3
               *** Restarting incremental Fock matrix formation ***
    7    -349.1172952627657082    -3.98e-05  8.87e-05  2.06e-03  3.73e-04     0.4
    8    -349.1172895760478809     5.69e-06  4.73e-05  1.67e-03  7.62e-04     0.3
    9    -349.1172982101488174    -8.63e-06  1.99e-05  4.13e-04  9.03e-05     0.3
   10    -349.1172977848976302     4.25e-07  1.23e-05  2.75e-04  1.89e-04     0.3
   11    -349.1172984286303631    -6.44e-07  3.45e-06  4.53e-05  1.36e-05     0.3
   12    -349.1172984307898446    -2.16e-09  1.24e-06  1.54e-05  7.79e-06     0.4
                 **** Energy Check signals convergence ****

               *****************************************************
               *                     SUCCESS                       *
               *           SCF CONVERGED AFTER  12 CYCLES          *
               *****************************************************

             **** ENERGY FILE WAS UPDATED (li_ec_1_PBE_SP.inp.en.tmp) ****

----------------
TOTAL SCF ENERGY
----------------

Total Energy       :       -349.11729843078984 Eh           -9499.96466 eV

Components:
Nuclear Repulsion  :        268.64893704099023 Eh            7310.30923 eV
Electronic Energy  :       -617.76623547178008 Eh          -16810.27388 eV
One Electron Energy:      -1001.01773410049611 Eh          -27239.07735 eV
Two Electron Energy:        383.25149862871604 Eh           10428.80347 eV

Virial components:
Potential Energy   :       -695.55944131999274 Eh          -18927.13464 eV
Kinetic Energy     :        346.44214288920290 Eh            9427.16998 eV
Virial Ratio       :          2.00772179596650

DFT components:
N(Alpha)           :       24.000020107952 electrons
N(Beta)            :       24.000020107952 electrons
N(Total)           :       48.000040215905 electrons
E(X)               :      -43.209612878888 Eh       
E(C)               :       -1.611531957143 Eh       
E(XC)              :      -44.821144836031 Eh       

---------------
SCF CONVERGENCE
---------------

  Last Energy change         ...    2.1595e-09  Tolerance :   1.0000e-08
  Last MAX-Density change    ...    1.5370e-05  Tolerance :   1.0000e-07
  Last RMS-Density change    ...    1.2357e-06  Tolerance :   5.0000e-09
  Last DIIS Error            ...    3.2607e-03  Tolerance :   5.0000e-07
  Last Orbital Gradient      ...    7.7901e-06  Tolerance :   1.0000e-05
  Last Orbital Rotation      ...    1.7403e-05  Tolerance :   1.0000e-05


----------------
ORBITAL ENERGIES
----------------

  NO   OCC          E(Eh)            E(eV) 
   0   2.0000     -18.985456      -516.6205 
   1   2.0000     -18.985276      -516.6156 
   2   2.0000     -18.941093      -515.4133 
   3   2.0000     -10.245527      -278.7950 
   4   2.0000     -10.122925      -275.4588 
   5   2.0000     -10.122871      -275.4573 
   6   2.0000      -2.080184       -56.6047 
   7   2.0000      -1.242631       -33.8137 
   8   2.0000      -1.125077       -30.6149 
   9   2.0000      -1.123063       -30.5601 
  10   2.0000      -0.866558       -23.5802 
  11   2.0000      -0.783048       -21.3078 
  12   2.0000      -0.711115       -19.3504 
  13   2.0000      -0.648452       -17.6453 
  14   2.0000      -0.648177       -17.6378 
  15   2.0000      -0.611655       -16.6440 
  16   2.0000      -0.592045       -16.1104 
  17   2.0000      -0.561451       -15.2779 
  18   2.0000      -0.541869       -14.7450 
  19   2.0000      -0.492285       -13.3958 
  20   2.0000      -0.490600       -13.3499 
  21   2.0000      -0.453153       -12.3309 
  22   2.0000      -0.447583       -12.1794 
  23   2.0000      -0.424303       -11.5459 
  24   0.0000      -0.193306        -5.2601 
  25   0.0000      -0.188579        -5.1315 
  26   0.0000      -0.140346        -3.8190 
  27   0.0000      -0.123833        -3.3697 
  28   0.0000      -0.116599        -3.1728 
  29   0.0000      -0.091177        -2.4810 
  30   0.0000      -0.076238        -2.0745 
  31   0.0000      -0.072566        -1.9746 
  32   0.0000      -0.046439        -1.2637 
  33   0.0000      -0.036187        -0.9847 
  34   0.0000      -0.016842        -0.4583 
*Only the first 10 virtual orbitals were printed.

                    ********************************
                    * MULLIKEN POPULATION ANALYSIS *
                    ********************************

-----------------------
MULLIKEN ATOMIC CHARGES
-----------------------
   0 C :    0.118083
   1 C :    0.117962
   2 O :   -0.220130
   3 H :    0.096203
   4 H :    0.098823
   5 O :   -0.221281
   6 H :    0.096117
   7 H :    0.098719
   8 C :    0.359990
   9 O :   -0.363835
  10 Li:    0.819350
Sum of atomic charges:    1.0000000

--------------------------------
MULLIKEN REDUCED ORBITAL CHARGES
--------------------------------
  0 C s       :     3.053242  s :     3.053242
      pz      :     1.095894  p :     2.778135
      px      :     0.960097
      py      :     0.722145
      dz2     :     0.008253  d :     0.050540
      dxz     :     0.006164
      dyz     :     0.010866
      dx2y2   :     0.015278
      dxy     :     0.009980

  1 C s       :     3.053216  s :     3.053216
      pz      :     1.098399  p :     2.778272
      px      :     0.990880
      py      :     0.688993
      dz2     :     0.008208  d :     0.050550
      dxz     :     0.006579
      dyz     :     0.010399
      dx2y2   :     0.016525
      dxy     :     0.008840

  2 O s       :     3.760113  s :     3.760113
      pz      :     1.699867  p :     4.441732
      px      :     1.512759
      py      :     1.229106
      dz2     :     0.002363  d :     0.018285
      dxz     :     0.003327
      dyz     :     0.002260
      dx2y2   :     0.004005
      dxy     :     0.006330

  3 H s       :     0.882072  s :     0.882072
      pz      :     0.012676  p :     0.021726
      px      :     0.005223
      py      :     0.003826

  4 H s       :     0.879221  s :     0.879221
      pz      :     0.010551  p :     0.021956
      px      :     0.005581
      py      :     0.005824

  5 O s       :     3.760197  s :     3.760197
      pz      :     1.701034  p :     4.442816
      px      :     1.472060
      py      :     1.269722
      dz2     :     0.002362  d :     0.018268
      dxz     :     0.003486
      dyz     :     0.002084
      dx2y2   :     0.005213
      dxy     :     0.005123

  6 H s       :     0.882160  s :     0.882160
      pz      :     0.012511  p :     0.021723
      px      :     0.005740
      py      :     0.003472

  7 H s       :     0.879326  s :     0.879326
      pz      :     0.010800  p :     0.021955
      px      :     0.006365
      py      :     0.004790

  8 C s       :     2.966026  s :     2.966026
      pz      :     0.848320  p :     2.498830
      px      :     0.825724
      py      :     0.824786
      dz2     :     0.009719  d :     0.175154
      dxz     :     0.022512
      dyz     :     0.032858
      dx2y2   :     0.044589
      dxy     :     0.065476

  9 O s       :     3.733774  s :     3.733774
      pz      :     1.581053  p :     4.618234
      px      :     1.773029
      py      :     1.264152
      dz2     :     0.001312  d :     0.011828
      dxz     :     0.000058
      dyz     :     0.003758
      dx2y2   :     0.004131
      dxy     :     0.002567

 10 Lis       :     2.041170  s :     2.041170
      pz      :     0.030091  p :     0.139480
      px      :     0.042274
      py      :     0.067115



                     *******************************
                     * LOEWDIN POPULATION ANALYSIS *
                     *******************************

----------------------
LOEWDIN ATOMIC CHARGES
----------------------
   0 C :    0.093782
   1 C :    0.093626
   2 O :   -0.014839
   3 H :    0.050106
   4 H :    0.054853
   5 O :   -0.015575
   6 H :    0.050046
   7 H :    0.054796
   8 C :    0.115086
   9 O :   -0.162790
  10 Li:    0.680909

-------------------------------
LOEWDIN REDUCED ORBITAL CHARGES
-------------------------------
  0 C s       :     2.870567  s :     2.870567
      pz      :     1.110680  p :     2.917885
      px      :     1.011305
      py      :     0.795900
      dz2     :     0.019831  d :     0.117766
      dxz     :     0.013436
      dyz     :     0.026697
      dx2y2   :     0.037218
      dxy     :     0.020585

  1 C s       :     2.870545  s :     2.870545
      pz      :     1.112649  p :     2.918024
      px      :     1.033241
      py      :     0.772134
      dz2     :     0.019655  d :     0.117805
      dxz     :     0.015467
      dyz     :     0.024671
      dx2y2   :     0.040440
      dxy     :     0.017572

  2 O s       :     3.458744  s :     3.458744
      pz      :     1.678621  p :     4.521984
      px      :     1.564424
      py      :     1.278939
      dz2     :     0.004303  d :     0.034111
      dxz     :     0.003753
      dyz     :     0.003999
      dx2y2   :     0.008027
      dxy     :     0.014028

  3 H s       :     0.882338  s :     0.882338
      pz      :     0.038940  p :     0.067556
      px      :     0.016123
      py      :     0.012494

  4 H s       :     0.877539  s :     0.877539
      pz      :     0.031754  p :     0.067607
      px      :     0.017220
      py      :     0.018634

  5 O s       :     3.458770  s :     3.458770
      pz      :     1.679575  p :     4.522712
      px      :     1.531803
      py      :     1.311334
      dz2     :     0.004289  d :     0.034093
      dxz     :     0.004123
      dyz     :     0.003631
      dx2y2   :     0.010954
      dxy     :     0.011096

  6 H s       :     0.882402  s :     0.882402
      pz      :     0.038392  p :     0.067552
      px      :     0.017680
      py      :     0.011481

  7 H s       :     0.877599  s :     0.877599
      pz      :     0.032534  p :     0.067605
      px      :     0.019586
      py      :     0.015486

  8 C s       :     2.782445  s :     2.782445
      pz      :     0.848204  p :     2.727284
      px      :     0.918923
      py      :     0.960157
      dz2     :     0.021874  d :     0.375185
      dxz     :     0.042909
      dyz     :     0.063261
      dx2y2   :     0.097416
      dxy     :     0.149726

  9 O s       :     3.458552  s :     3.458552
      pz      :     1.552752  p :     4.680407
      px      :     1.737939
      py      :     1.389717
      dz2     :     0.003454  d :     0.023831
      dxz     :     0.000060
      dyz     :     0.005412
      dx2y2   :     0.010473
      dxy     :     0.004432

 10 Lis       :     2.079158  s :     2.079158
      pz      :     0.039899  p :     0.239932
      px      :     0.053618
      py      :     0.146416



                      *****************************
                      * MAYER POPULATION ANALYSIS *
                      *****************************

  NA   - Mulliken gross atomic population
  ZA   - Total nuclear charge
  QA   - Mulliken gross atomic charge
  VA   - Mayer's total valence
  BVA  - Mayer's bonded valence
  FA   - Mayer's free valence

  ATOM       NA         ZA         QA         VA         BVA        FA
  0 C      5.8819     6.0000     0.1181     3.9476     3.9476    -0.0000
  1 C      5.8820     6.0000     0.1180     3.9476     3.9476    -0.0000
  2 O      8.2201     8.0000    -0.2201     2.3206     2.3206    -0.0000
  3 H      0.9038     1.0000     0.0962     0.9752     0.9752    -0.0000
  4 H      0.9012     1.0000     0.0988     0.9789     0.9789    -0.0000
  5 O      8.2213     8.0000    -0.2213     2.3195     2.3195     0.0000
  6 H      0.9039     1.0000     0.0961     0.9753     0.9753    -0.0000
  7 H      0.9013     1.0000     0.0987     0.9789     0.9789    -0.0000
  8 C      5.6400     6.0000     0.3600     4.2584     4.2584    -0.0000
  9 O      8.3638     8.0000    -0.3638     2.1431     2.1431    -0.0000
 10 Li     2.1806     3.0000     0.8194     0.3528     0.3528    -0.0000

  Mayer bond orders larger than 0.100000
B(  0-C ,  1-C ) :   1.0879 B(  0-C ,  2-O ) :   0.9079 B(  0-C ,  3-H ) :   0.9443 
B(  0-C ,  4-H ) :   0.9475 B(  1-C ,  5-O ) :   0.9079 B(  1-C ,  6-H ) :   0.9443 
B(  1-C ,  7-H ) :   0.9475 B(  2-O ,  8-C ) :   1.2595 B(  5-O ,  8-C ) :   1.2584 
B(  8-C ,  9-O ) :   1.6673 B(  9-O , 10-Li) :   0.3103 

-------
TIMINGS
-------

Total SCF time: 0 days 0 hours 0 min 4 sec 

Total time                  ....       4.311 sec
Sum of individual times     ....       4.305 sec  ( 99.9%)

SCF preparation             ....       0.030 sec  (  0.7%)
Fock matrix formation       ....       4.217 sec  ( 97.8%)
  Startup                   ....       0.002 sec  (  0.1% of F)
  Split-RI-J                ....       0.970 sec  ( 23.0% of F)
  XC integration            ....       3.228 sec  ( 76.6% of F)
    Basis function eval.    ....       1.389 sec  ( 43.0% of XC)
    Density eval.           ....       0.541 sec  ( 16.7% of XC)
    XC-Functional eval.     ....       0.209 sec  (  6.5% of XC)
    XC-Potential eval.      ....       0.910 sec  ( 28.2% of XC)
Diagonalization             ....       0.000 sec  (  0.0%)
Density matrix formation    ....       0.007 sec  (  0.2%)
Total Energy calculation    ....       0.004 sec  (  0.1%)
Population analysis         ....       0.006 sec  (  0.1%)
Orbital Transformation      ....       0.005 sec  (  0.1%)
Orbital Orthonormalization  ....       0.000 sec  (  0.0%)
DIIS solution               ....       0.022 sec  (  0.5%)
SOSCF solution              ....       0.014 sec  (  0.3%)
Finished LeanSCF after   4.3 sec

Maximum memory used throughout the entire LEANSCF-calculation: 11.8 MB


-------------------------------------------------------------------------------
                          DFT DISPERSION CORRECTION                            
                                                                               
                              DFTD3 V3.1  Rev 1                                
                          USING Becke-Johnson damping                          
-------------------------------------------------------------------------------
The PBE functional is recognized
Active option DFTDOPT                   ...         4   

molecular C6(AA) [au] = 1448.615534 


            DFT-D V3
 parameters
 s6 scaling factor         :     1.0000 
 a1 scaling factor         :     0.4289 
 s8 scaling factor         :     0.7875 
 a2 scaling factor         :     4.4407 
 ad hoc parameters k1-k3   :    16.0000     1.3333    -4.0000 

 Edisp/kcal,au: -4.846549837043  -0.007723467964 
 E6   /kcal   :  -3.387408742 
 E8   /kcal   :  -1.459141095 
 % E8         :  30.106800595 

-------------------------   ----------------
Dispersion correction           -0.007723468
-------------------------   ----------------


-------------------------   --------------------
FINAL SINGLE POINT ENERGY      -349.125021898754
-------------------------   --------------------


------------------------------------------------------------------------------
                              ORCA PROPERTY CALCULATIONS
------------------------------------------------------------------------------

GBWName                                 ... li_ec_1_PBE_SP.inp.gbw
Number of atoms                         ...     11
Number of basis functions               ...    118
Max core memory                         ...   1024 MB

Electric properties:
Dipole moment                           ... YES
Quadrupole moment                       ...  NO
Static polarizability (Dipole/Dipole)   ...  NO
Static polarizability (Dipole/Quad.)    ...  NO
Static polarizability (Quad./Quad.)     ...  NO
Static polarizability (Velocity)        ...  NO

Atomic electric properties:
Dipole moment                           ...  NO
Quadrupole moment                       ...  NO
Static polarizability                   ...  NO

Choice of electric origin               ... Center of mass
Position of electric origin             ...   -13.560671     1.573315     0.102655

General magnetic properties:
Magnetizability                         ...  NO

EPR properties:
g-Tensor (aka g-matrix)                 ...  NO
Zero-Field splitting spin-orbit         ...  NO
Zero-field splitting spin-spin          ...  NO
Hyperfine couplings                     ...  NO (   0 nuclei)
Quadrupole couplings                    ...  NO (   0 nuclei)
Contact density                         ...  NO (   0 nuclei)

NMR properties:
Chemical shifts                         ...  NO (   0 nuclei)
Spin-rotation constants                 ...  NO (   0 nuclei)
Spin-spin couplings                     ...  NO (   0 nuclei,    0 pairs)

Choice of magnetic origin               ... GIAO
Position of magnetic origin             ...     0.000000     0.000000     0.000000

Properties with geometric perturbations:
SCF Hessian                             ...  NO
IR spectrum                             ...  NO
VCD spectrum                            ...  NO
X-ray spectroscopy properties:
SCF XES/XAS/RIXS spectra                ...  NO


-------------
DIPOLE MOMENT
-------------

Method             : SCF
Type of density    : Electron Density
Multiplicity       :   1
Irrep              :   0
Energy             :  -349.1172984307898446 Eh
Relativity type    : 
Basis              : AO
                                X                 Y                 Z
Electronic contribution:     -0.782433176     -13.389190434       0.176980449
Nuclear contribution   :      0.669917120      10.870642103      -0.146966504
                        -----------------------------------------
Total Dipole Moment    :     -0.112516057      -2.518548330       0.030013944
                        -----------------------------------------
Magnitude (a.u.)       :      2.521239059
Magnitude (Debye)      :      6.408480398



--------------------
Rotational spectrum 
--------------------
 
Rotational constants in cm-1:             0.271535             0.077035             0.061542 
Rotational constants in MHz :          8140.404930          2309.448686          1844.987985 

Dipole components along the rotational axes: 
x,y,z [a.u.] :     2.520952     0.038002    -0.001117 
x,y,z [Debye]:     6.407752     0.096595    -0.002838 

 

Dipole moment calculation done in   0.0 sec 

Maximum memory used throughout the entire PROP-calculation: 6.4 MB

--------------------------------
SUGGESTED CITATIONS FOR THIS RUN
--------------------------------

Below you find a list of papers that are relevant to this ORCA run
We neither can nor want to force you to cite these papers, but we appreciate if you do
You receive ORCA, which is the product of decades of hard work by many enthusiastic individuals, for free
The only thing we kindly ask in return is that you cite our papers,
We deeply appreciate it, if you show your appreciation for ORCA by not just citing the generic ORCA reference.

Please note that relegating all ORCA citations to the supporting information does *not* help us.
SI sections are not indexed - citations you put there will not count into any citation statistics
But we need these citations in order to attract the funding resources that allow us to do what we are doing

Therefore, if you are a happy ORCA user, please consider citing a few of the papers listed below in the main body of your paper

In addition to the list printed below, the program has created the file li_ec_1_PBE_SP.inp.bibtex that contains the list in bibtex format
You can import this file easily into all common literature databanks and citation aid programs


List of essential papers. We consider these as the minimum necessary citations

  1. Neese,F.
     Software update: the ORCA program system, version 5.0
     WIRES Comput. Molec. Sci., 2022 12(1)e1606
     doi.org/10.1002/wcms.1606

List of papers to cite with high priority. The work reported in these papers was absolutely
necessary for this run to complete.
Our perspective: the developers of density functionals and basis sets usually get cited in chemistry papers
Good! But without the algorithms to do something with them, the functionals or basis sets would not do anything.
Hence, in our opinion, the algorithm design and method developments papers are equally worthy of getting cited

  1. Neese,F.
     An improvement of the resolution of the identity approximation for the formation of the Coulomb matrix
     J. Comp. Chem., 2003 24(14)1740-1747
     doi.org/10.1002/jcc.10318
  2. Neese,F.
     The SHARK Integral Generation and Digestion System
     J. Comp. Chem., 2022  1-16
     doi.org/10.1002/jcc.26942
  3. Grimme,S.; Antony,J.; Ehrlich,S.; Krieg,H.
     A consistent and accurate ab initio parametrization of density functional dispersion correction (DFT-D) for the 94 elements H-Pu
     J. Chem. Phys., 2010 132 154104
     doi.org/10.1063/1.3382344
  4. Grimme,S.; Ehrlich,S.; Goerigk,L.
     Effect of the damping function in dispersion corrected density functional theory
     J. Comput. Chem., 2011 32(7)1456-1465
     doi.org/10.1002/jcc.21759

List of suggested additional citations. These are papers that are important in the 'surrounding' of 
of this run, or papers that preceded the highly important papers. If you like your results we are grateful for a citation.

  1. Neese,F.
     The ORCA program system
     WIRES Comput. Molec. Sci., 2012 2(1)73-78
     doi.org/10.1002/wcms.81
  2. Neese,F.
     Software update: the ORCA program system, version 4.0
     WIRES Comput. Molec. Sci., 2018 8(1)1-6
     doi.org/10.1002/wcms.1327
  3. Neese,F.; Wennmohs,F.; Becker,U.; Riplinger,C.
     The ORCA quantum chemistry program package
     J. Chem. Phys., 2020 152 Art. No. L224108
     doi.org/10.1063/5.0004608

List of optional additional citations

  1. Neese,F.
     Approximate second-order SCF convergence for spin unrestricted wavefunctions
     Chem. Phys. Lett., 2000 325(1-3)93-98
     doi.org/10.1016/s0009-2614(00)00662-x

Timings for individual modules:

Sum of individual times          ...        5.365 sec (=   0.089 min)
Startup calculation              ...        0.578 sec (=   0.010 min)  10.8 %
SCF iterations                   ...        4.690 sec (=   0.078 min)  87.4 %
Property calculations            ...        0.097 sec (=   0.002 min)   1.8 %
                             ****ORCA TERMINATED NORMALLY****
TOTAL RUN TIME: 0 days 0 hours 0 minutes 5 seconds 528 msec
